/*--------------------------------*- C++ -*----------------------------------*\
  =========                 |
  \\      /  F ield         | OpenFOAM: The Open Source CFD Toolbox
   \\    /   O peration     | Website:  https://openfoam.org
    \\  /    A nd           | Version:  6
     \\/     M anipulation  |
\*---------------------------------------------------------------------------*/
FoamFile
{
    version     2.0;
    format      ascii;
    class       volScalarField;
    location    "0";
    object      alpha.resin;
}
// * * * * * * * * * * * * * * * * * * * * * * * * * * * * * * * * * * * * * //

dimensions      [0 0 0 0 0 0 0];

internalField   nonuniform List<scalar> 
50000
(
1
1
1
1
0.92521176
0.081364399
-9.4829728e-24
-7.2245704e-24
-1.1369782e-23
-1.1780235e-23
-9.2813549e-24
-5.9125815e-24
-3.1577838e-24
-1.4480901e-24
-5.7981599e-25
-2.0522977e-25
-6.4830614e-26
-1.8415661e-26
-4.7328328e-27
-1.1060577e-27
-2.3604585e-28
-4.616732e-29
-8.3008766e-30
-1.3756572e-30
-2.1061317e-31
-2.9847845e-32
-3.922356e-33
-4.7868615e-34
-5.4326596e-35
-5.7406319e-36
-5.6542538e-37
-5.1965261e-38
-4.4608244e-39
-3.5803891e-40
-2.6898901e-41
-1.8938823e-42
-1.251355e-43
-7.7714267e-45
-4.5446138e-46
-2.5075547e-47
-1.3083304e-48
-6.4696392e-50
-3.0385635e-51
-1.3578794e-52
-5.7807602e-54
-2.3454936e-55
-9.0665126e-57
-3.3350072e-58
-1.1652964e-59
-3.8595342e-61
-1.2089707e-62
-3.5738446e-64
-9.9503797e-66
-2.6048748e-67
-6.4025378e-69
-1.4757464e-70
-3.1865443e-72
-6.439959e-74
-1.2171219e-75
-2.1493661e-77
-3.5435286e-79
-5.4488777e-81
-7.8069487e-83
-1.0410431e-84
-1.2903981e-86
-1.4846985e-88
-1.5831961e-90
-1.5619209e-92
-1.4228997e-94
-1.1944103e-96
-9.2166349e-99
-6.5207831e-101
-4.2178003e-103
-2.4862626e-105
-1.3308897e-107
-6.4438364e-110
-2.809322e-112
-1.0971886e-114
-3.8159478e-117
-1.1736534e-119
-3.1658867e-122
-7.4150673e-125
-1.4894323e-127
-2.5257874e-130
-3.5425911e-133
-3.9957979e-136
-3.4800046e-139
-2.1944918e-142
-8.913e-146
-1.7565452e-149
-9.6447478e-155
-4.9101415e-158
-1.6130497e-161
-2.5649919e-165
-8.2410808e-203
0
0
0
0
0
1
1
1
1
0.92341289
0.079870158
-1.5154759e-20
-4.4777922e-20
-2.0707008e-20
-5.6803641e-21
-1.8208281e-21
-6.8105606e-22
-2.3279985e-22
-6.9848354e-23
-1.909005e-23
-4.9553354e-24
-1.2519284e-24
-3.0807246e-25
-7.2766867e-26
-1.6222689e-26
-3.3737351e-27
-6.5055028e-28
-1.1607109e-28
-1.9162645e-29
-2.9302538e-30
-4.1557338e-31
-5.4736114e-32
-6.7040811e-33
-7.6444463e-34
-8.1234745e-35
-8.0523579e-36
-7.4514484e-37
-6.4417796e-38
-5.2058945e-39
-3.9351075e-40
-2.7836333e-41
-1.8435842e-42
-1.1436497e-43
-6.6476851e-45
-3.6220152e-46
-1.8504412e-47
-8.8669935e-49
-3.9863235e-50
-1.6817849e-51
-6.6598581e-53
-2.4759449e-54
-8.6432743e-56
-2.8337484e-57
-8.7276021e-59
-2.5259762e-60
-6.8737418e-62
-1.7601027e-63
-4.2460648e-65
-9.6667823e-67
-2.0817005e-68
-4.2523867e-70
-8.2666358e-72
-1.5342998e-73
-2.7260553e-75
-4.6434546e-77
-7.5813486e-79
-1.1841199e-80
-1.7631583e-82
-2.4919618e-84
-3.3275857e-86
-4.1795051e-88
-4.9181862e-90
-5.4036944e-92
-5.5275158e-94
-5.2511034e-96
-4.6228128e-98
-3.7637899e-100
-2.8285689e-102
-1.9583274e-104
-1.246533e-106
-7.2793098e-109
-3.8907865e-111
-1.8986415e-113
-8.4350393e-116
-3.4009968e-118
-1.2401081e-120
-4.072737e-123
-1.1990848e-125
-3.1474822e-128
-7.3179683e-131
-1.4952417e-133
-2.6590854e-136
-4.0664133e-139
-5.2655319e-142
-5.6569335e-145
-4.9032758e-148
-3.2923678e-151
-1.6057935e-154
-5.057611e-158
-7.7161293e-162
0
0
0
0
0
1
1
1
1
0.92439941
0.080694857
-2.2038053e-19
-1.7078239e-20
-4.7913505e-21
-3.691421e-21
-1.8649835e-21
-6.9878601e-22
-2.0761002e-22
-5.0939344e-23
-1.0618219e-23
-1.9312656e-24
-3.180924e-25
-5.0362993e-26
-8.28287e-27
-1.4873428e-27
-2.8573698e-28
-5.5349243e-29
-1.0312027e-29
-1.8050851e-30
-2.9437565e-31
-4.4643449e-32
-6.299366e-33
-8.2801373e-34
-1.0151412e-34
-1.1621516e-35
-1.2436062e-36
-1.244979e-37
-1.1668629e-38
-1.0245324e-39
-8.4314864e-41
-6.5063737e-42
-4.7095306e-43
-3.1984112e-44
-2.0384191e-45
-1.2193054e-46
-6.8458015e-48
-3.6077764e-49
-1.7846347e-50
-8.2856478e-52
-3.6101748e-53
-1.4760389e-54
-5.6619505e-56
-2.0372916e-57
-6.8749542e-59
-2.1752939e-60
-6.4519559e-62
-1.7933938e-63
-4.6703243e-65
-1.1391244e-66
-2.601361e-68
-5.5599698e-70
-1.1117435e-71
-2.0787063e-73
-3.6325303e-75
-5.9292194e-77
-9.0338956e-79
-1.2839028e-80
-1.700723e-82
-2.0980743e-84
-2.408315e-86
-2.5698474e-88
-2.5466691e-90
-2.3412217e-92
-1.9943461e-94
-1.5720194e-96
-1.1447933e-98
-7.6875601e-101
-4.7495559e-103
-2.6922868e-105
-1.3955403e-107
-6.5882651e-110
-2.8191972e-112
-1.0872785e-114
-3.754178e-117
-1.1514234e-119
-3.1079499e-122
-7.3018358e-125
-1.4733058e-127
-2.5109277e-130
-3.5381936e-133
-4.005637e-136
-3.4968008e-139
-2.2071005e-142
-8.9606509e-146
-1.7606013e-149
-4.0321948e-155
-1.4915208e-158
-3.0297909e-162
-1.7966411e-166
0
0
0
0
0
0
1
1
1
1
0.92418082
0.080515819
-1.2421681e-20
-5.1350435e-20
-2.9509324e-20
-1.1467622e-20
-4.5374962e-21
-1.7942784e-21
-6.6281125e-22
-2.241893e-22
-6.8883562e-23
-1.9176523e-23
-4.8490285e-24
-1.1192417e-24
-2.3702268e-25
-4.6240555e-26
-8.3333824e-27
-1.3895429e-27
-2.1453124e-28
-3.067402e-29
-4.0617034e-30
-4.9806423e-31
-5.6560999e-32
-5.9493394e-33
-5.7977121e-34
-5.236502e-35
-4.3855237e-36
-3.4074977e-37
-2.4579631e-38
-1.6474733e-39
-1.027275e-40
-5.96954e-42
-3.2412974e-43
-1.6509101e-44
-7.9329862e-46
-3.6248297e-47
-1.5907625e-48
-6.7784174e-50
-2.8310982e-51
-1.1647968e-52
-4.7148208e-54
-1.8648606e-55
-7.1382331e-57
-2.6185807e-58
-9.1315625e-60
-3.0089318e-61
-9.3294173e-63
-2.7142213e-64
-7.3949653e-66
-1.8840634e-67
-4.483305e-69
-9.953064e-71
-2.0591127e-72
-3.9650752e-74
-7.0976636e-76
-1.1794258e-77
-1.8166178e-79
-2.589302e-81
-3.4091934e-83
-4.1382872e-85
-4.621215e-87
-4.736177e-89
-4.4431615e-91
-3.8042632e-93
-2.9629479e-95
-2.091307e-97
-1.3319184e-99
-7.616095e-102
-3.8872197e-104
-1.7586672e-106
-6.9943342e-109
-2.4205547e-111
-7.198046e-114
-1.8100892e-116
-3.7696127e-119
-6.3191658e-122
-8.1844022e-125
-7.6778689e-128
-4.6380222e-131
-1.3536964e-134
-1.249752e-140
-1.0847933e-143
-6.9034523e-147
-3.0080353e-150
-9.3405844e-154
-4.2709029e-157
-3.3784537e-160
-1.9151154e-163
-6.9315207e-167
-1.2045717e-170
9.2556499e-186
0
0
0
0
0
1
1
1
1
0.92426316
0.08058087
2.0483811e-20
0
-5.7099563e-21
-4.2958674e-21
-2.2490995e-21
-9.3327771e-22
-3.2012835e-22
-9.341935e-23
-2.367365e-23
-5.2845987e-24
-1.0488369e-24
-1.8608868e-25
-2.9601148e-26
-4.2288461e-27
-5.4366455e-28
-6.3157597e-29
-6.6904468e-30
-6.5854106e-31
-6.2344767e-32
-5.9719673e-33
-6.0693005e-34
-6.6119501e-35
-7.4760539e-36
-8.3977675e-37
-9.0842518e-38
-9.3126802e-39
-8.9867514e-40
-8.1448545e-41
-6.9294591e-42
-5.534677e-43
-4.1510989e-44
-2.9241833e-45
-1.9350073e-46
-1.2029065e-47
-7.025157e-49
-3.8541461e-50
-1.9860549e-51
-9.6107754e-53
-4.3662948e-54
-1.8616954e-55
-7.4467784e-57
-2.7930902e-58
-9.8179129e-60
-3.2322094e-61
-9.9591085e-63
-2.8697314e-64
-7.7265158e-66
-1.9419145e-67
-4.5511442e-69
-9.9345899e-71
-2.0172698e-72
-3.8050056e-74
-6.6566878e-76
-1.0783081e-77
-1.6143899e-79
-2.2293329e-81
-2.8331767e-83
-3.3054913e-85
-3.5308584e-87
-3.4426788e-89
-3.053719e-91
-2.4550405e-93
-1.7814982e-95
-1.1615033e-97
-6.7702345e-100
-3.5098548e-102
-1.6106489e-104
-6.5239027e-107
-2.3392307e-109
-7.5523093e-112
-2.2955045e-114
-7.0835535e-117
-2.3599742e-119
-8.3418375e-122
-2.9106391e-124
-9.4499554e-127
-2.7733877e-129
-7.2678622e-132
-1.6878493e-134
-3.4461367e-137
-6.1258435e-140
-9.3658855e-143
-1.212654e-145
-1.3027437e-148
-1.1291651e-151
-7.5818715e-155
-3.6979195e-158
-1.1647008e-161
-1.7769276e-165
1.9584805e-180
0
0
0
0
1
1
1
1
0.924261
0.080579404
-1.7652919e-21
-2.2869972e-21
-2.4697651e-21
-1.5213937e-21
-6.6819043e-22
-2.2612272e-22
-6.1501137e-23
-1.3931303e-23
-2.750802e-24
-5.0957262e-25
-9.8005314e-26
-2.094945e-26
-4.8395673e-27
-1.1210699e-27
-2.4710971e-28
-5.0708956e-29
-9.630643e-30
-1.6927294e-30
-2.7579112e-31
-4.1728883e-32
-5.8735614e-33
-7.7024872e-34
-9.4231765e-35
-1.0767073e-35
-1.1501732e-36
-1.1496543e-37
-1.0760493e-38
-9.4370353e-40
-7.7591826e-41
-5.983807e-42
-4.33007e-43
-2.9411493e-44
-1.8757361e-45
-1.1234899e-46
-6.3212962e-48
-3.3417187e-49
-1.6601301e-50
-7.7518075e-52
-3.4027881e-53
-1.4045144e-54
-5.4522271e-56
-1.9910679e-57
-6.8419856e-59
-2.2130543e-60
-6.7398883e-62
-1.933311e-63
-5.2247909e-65
-1.3306533e-66
-3.1942458e-68
-7.2279095e-70
-1.5416092e-71
-3.0985815e-73
-5.8670066e-75
-1.0459254e-76
-1.7543309e-78
-2.7661912e-80
-4.0962887e-82
-5.6907014e-84
-7.4078705e-86
-9.0243686e-88
-1.0273924e-89
-1.0914529e-91
-1.0802461e-93
-9.9432849e-96
-8.4957258e-98
-6.7241283e-100
-4.9188054e-102
-3.317502e-104
-2.0575072e-106
-1.1700517e-108
-6.0820797e-111
-2.8801442e-113
-1.2379014e-115
-4.8094847e-118
-1.6814438e-120
-5.2628077e-123
-1.4661052e-125
-3.6105554e-128
-7.7974073e-131
-1.4624188e-133
-2.3535065e-136
-3.2006504e-139
-3.6049706e-142
-3.2711658e-145
-2.2969614e-148
-1.1707817e-151
-3.852774e-155
-6.1429133e-159
-2.9102798e-168
0
0
0
0
0
1
1
1
1
0.92427224
0.080588143
-2.839917e-20
-2.3851449e-20
-2.2069911e-20
-1.1006196e-20
-4.0867789e-21
-1.3203222e-21
-3.9463343e-22
-1.1007835e-22
-2.8406463e-23
-6.7338309e-24
-1.4646183e-24
-2.9285215e-25
-5.3946117e-26
-9.1693896e-27
-1.4404912e-27
-2.0970473e-28
-2.8405778e-29
-3.6003509e-30
-4.2991101e-31
-4.8713891e-32
-5.2724944e-33
-5.4763335e-34
-5.4688345e-35
-5.245797e-36
-4.818195e-37
-4.2198616e-38
-3.509256e-39
-2.7608901e-40
-2.0491388e-41
-1.4318493e-42
-9.4063119e-44
-5.8039974e-45
-3.3615425e-46
-1.8266281e-47
-9.309101e-49
-4.4483052e-50
-1.9926569e-51
-8.3674697e-53
-3.2939942e-54
-1.2160737e-55
-4.2128606e-57
-1.37092e-58
-4.1966422e-60
-1.2108892e-61
-3.301358e-63
-8.529111e-65
-2.0942326e-66
-4.9002125e-68
-1.0946845e-69
-2.3362744e-71
-4.7593907e-73
-9.2338286e-75
-1.7003771e-76
-2.9600115e-78
-4.8505968e-80
-7.4521172e-82
-1.0693338e-83
-1.4283034e-85
-1.7703798e-87
-2.030577e-89
-2.14934e-91
-2.0939188e-93
-1.8723484e-95
-1.5321975e-97
-1.143829e-99
-7.7623499e-102
-4.7696869e-104
-2.6417796e-106
-1.3121138e-108
-5.8091949e-111
-2.276573e-113
-7.8314587e-116
-2.3410707e-118
-6.0060215e-121
-1.3017152e-123
-2.3349059e-126
-3.3705971e-129
-3.7619913e-132
-3.0517781e-135
-1.6205232e-138
-4.6898357e-142
-9.0067523e-146
-8.4787845e-149
-6.1732616e-152
-3.261172e-155
-1.1119305e-158
-1.8369335e-162
-2.484315e-171
-3.9269615e-186
0
0
0
0
0
1
1
1
1
0.92427595
0.080591002
-2.2991368e-19
-2.7709879e-20
-1.6439836e-20
-1.15557e-20
-6.0021394e-21
-2.4910926e-21
-8.6117642e-22
-2.5489154e-22
-6.5861823e-23
-1.506562e-23
-3.0812788e-24
-5.6750093e-25
-9.4654608e-26
-1.4378082e-26
-2.0036687e-27
-2.5895027e-28
-3.152712e-29
-3.6895346e-30
-4.2362611e-31
-4.8364619e-32
-5.4922381e-33
-6.133282e-34
-6.628019e-35
-6.8333797e-36
-6.6554336e-37
-6.0887554e-38
-5.2175607e-39
-4.1832527e-40
-3.1375166e-41
-2.2018836e-42
-1.4465651e-43
-8.9013516e-45
-5.1334542e-46
-2.7763805e-47
-1.4091692e-48
-6.7171181e-50
-3.0094186e-51
-1.2683243e-52
-5.0329234e-54
-1.8822444e-55
-6.6413595e-57
-2.213453e-58
-6.977257e-60
-2.0832579e-61
-5.9015071e-63
-1.58896e-64
-4.0733417e-66
-9.9567934e-68
-2.322808e-69
-5.1718759e-71
-1.0979414e-72
-2.2176933e-74
-4.249485e-76
-7.6979389e-78
-1.3135032e-79
-2.1036425e-81
-3.1520323e-83
-4.4059313e-85
-5.7307381e-87
-6.9202334e-89
-7.7419516e-91
-8.0077015e-93
-7.6416463e-95
-6.7132612e-97
-5.4164963e-99
-4.0032677e-101
-2.7025689e-103
-1.6611923e-105
-9.2639175e-108
-4.6682808e-110
-2.1160683e-112
-8.5832941e-115
-3.0968955e-117
-9.8700158e-120
-2.7559132e-122
-6.676303e-125
-1.3869164e-127
-2.4360597e-130
-3.557586e-133
-4.2390724e-136
-4.0549176e-139
-3.129599e-142
-2.1070903e-145
-1.4774412e-148
-1.1286418e-151
-7.5784123e-155
-3.6962356e-158
-1.1641675e-161
-1.7761091e-165
-1.9584471e-180
0
0
0
0
1
1
1
1
0.9242786
0.08059303
3.8964682e-21
-2.1442551e-20
-2.2099805e-20
-1.2118147e-20
-4.9045298e-21
-1.6642088e-21
-5.1491446e-22
-1.5321362e-22
-4.449035e-23
-1.2444074e-23
-3.2856944e-24
-8.0633267e-25
-1.8226787e-25
-3.7792465e-26
-7.1794273e-27
-1.2502161e-27
-1.9983944e-28
-2.93709e-29
-3.976083e-30
-4.9660893e-31
-5.7311158e-32
-6.1191207e-33
-6.0511483e-34
-5.547243e-35
-4.7176116e-36
-3.7240588e-37
-2.7298432e-38
-1.8586643e-39
-1.1756082e-40
-6.9075273e-42
-3.7698719e-43
-1.910592e-44
-8.988551e-46
-3.9236172e-47
-1.5882091e-48
-5.9574125e-50
-2.0691791e-51
-6.6488251e-53
-1.9745204e-54
-5.4130743e-56
-1.3680233e-57
-3.1818177e-59
-6.7960701e-61
-1.3293293e-62
-2.3725448e-64
-3.8452703e-66
-5.624398e-68
-7.3657982e-70
-8.5515158e-72
-8.6953199e-74
-7.6372073e-76
-5.7231085e-78
-3.6763077e-80
-2.199456e-82
-1.6118594e-84
-1.8070247e-86
-2.4889047e-88
-3.3987504e-90
-4.3591891e-92
-5.2165621e-94
-5.8165043e-96
-6.0345723e-98
-5.8175009e-100
-5.203684e-102
-4.3123965e-104
-3.3057419e-106
-2.3400205e-108
-1.526727e-110
-9.1622063e-113
-5.0458945e-115
-2.5436479e-117
-1.1702905e-119
-4.8979475e-122
-1.8577199e-124
-6.3578477e-127
-1.9535693e-129
-5.35798e-132
-1.3026927e-134
-2.7847631e-137
-5.1822487e-140
-8.2924872e-143
-1.1233206e-145
-1.2620707e-148
-1.1435637e-151
-8.0238025e-155
-4.0878619e-158
-1.3444615e-161
-2.1415662e-165
-3.6178142e-185
0
0
0
0
0
1
1
1
1
0.92428013
0.080594184
1.5315066e-20
-1.6252507e-20
-1.2121488e-20
-5.5716417e-21
-2.7385855e-21
-1.2814428e-21
-5.1926839e-22
-1.8222149e-22
-5.6351269e-23
-1.5603002e-23
-3.9200966e-24
-9.0351002e-25
-1.9266135e-25
-3.8230078e-26
-7.0824418e-27
-1.226438e-27
-1.9848033e-28
-2.9994731e-29
-4.2290236e-30
-5.5593481e-31
-6.812097e-32
-7.7813425e-33
-8.2892053e-34
-8.2395681e-35
-7.6474695e-36
-6.6320746e-37
-5.3775209e-38
-4.0791736e-39
-2.896309e-40
-1.925732e-41
-1.1994919e-42
-7.0017764e-44
-3.8316674e-45
-1.9665837e-46
-9.4710124e-48
-4.2826847e-49
-1.8198593e-50
-7.2752391e-52
-2.7401732e-53
-9.7416334e-55
-3.2762839e-56
-1.0450666e-57
-3.1703677e-59
-9.1711894e-61
-2.5353802e-62
-6.7075164e-64
-1.6987101e-65
-4.1149447e-67
-9.5174941e-69
-2.0967021e-70
-4.3875537e-72
-8.6977741e-74
-1.629392e-75
-2.8783953e-77
-4.7863167e-79
-7.4802204e-81
-1.0972491e-82
-1.5088055e-84
-1.942549e-86
-2.3387865e-88
-2.6299404e-90
-2.7585668e-92
-2.6955298e-94
-2.4506043e-96
-2.0702847e-98
-1.6232869e-100
-1.1799756e-102
-7.943024e-105
-4.9460504e-107
-2.8456813e-109
-1.5107272e-111
-7.388076e-114
-3.3210533e-116
-1.3682832e-118
-5.1478211e-121
-1.7603315e-123
-5.4402165e-126
-1.5091752e-128
-3.7282232e-131
-8.1255614e-134
-1.5453333e-136
-2.5309132e-139
-3.5118066e-142
-4.0426667e-145
-3.7529697e-148
-2.6971651e-151
-1.4069174e-154
-4.7355699e-158
-7.7156784e-162
0
0
0
0
0
1
1
1
1
0.9242811
0.080594918
2.1646147e-19
-4.19642e-36
-2.1064024e-20
-1.2381065e-20
-5.0704401e-21
-1.6969701e-21
-5.0717894e-22
-1.4054545e-22
-3.633917e-23
-8.7252698e-24
-1.9353437e-24
-3.953377e-25
-7.4308276e-26
-1.2867964e-26
-2.05941e-27
-3.0597312e-28
-4.242076e-29
-5.517153e-30
-6.7650014e-31
-7.8574006e-32
-8.684017e-33
-9.1737921e-34
-9.3033898e-35
-9.0902605e-36
-8.5765623e-37
-7.8149759e-38
-6.8638071e-39
-5.7896757e-40
-4.6695739e-41
-3.5853807e-42
-2.6109434e-43
-1.7980771e-44
-1.1686574e-45
-7.159277e-47
-4.1307206e-48
-2.2438337e-49
-1.1473559e-50
-5.5225448e-52
-2.5022541e-53
-1.0673324e-54
-4.2861289e-56
-1.6204598e-57
-5.7678389e-59
-1.9326985e-60
-6.0959464e-62
-1.809528e-63
-5.0538684e-65
-1.3275961e-66
-3.2786689e-68
-7.6081451e-70
-1.6577586e-71
-3.3891247e-73
-6.4951887e-75
-1.1657408e-76
-1.9572373e-78
-3.0704562e-80
-4.49503e-82
-6.132738e-84
-7.7868691e-86
-9.1881246e-88
-1.0059808e-89
-1.0203924e-91
-9.5729023e-94
-8.2921168e-96
-6.6196083e-98
-4.8605547e-100
-3.2756318e-102
-2.0213375e-104
-1.1391596e-106
-5.846057e-109
-2.7229428e-111
-1.1467616e-113
-4.3479468e-116
-1.4766964e-118
-4.4663011e-121
-1.1946831e-123
-2.8029989e-126
-5.7110548e-129
-9.9807778e-132
-1.4728545e-134
-1.7979861e-137
-1.7654443e-140
-1.3387048e-143
-7.3503152e-147
-2.5979189e-150
-4.4337369e-154
-1.1104233e-162
-1.7267411e-166
0
0
0
0
0
0
1
1
1
1
0.92428173
0.080595394
-3.0330658e-22
-5.712955e-22
-8.207355e-22
-7.4333226e-22
-5.1250612e-22
-2.8645059e-22
-1.3420683e-22
-5.3916877e-23
-1.8891872e-23
-5.8516583e-24
-1.6201835e-24
-4.0477093e-25
-9.1981984e-26
-1.9143908e-26
-3.6704532e-27
-6.5141505e-28
-1.0742589e-28
-1.6509715e-29
-2.3695365e-30
-3.1805734e-31
-3.996478e-32
-4.7038558e-33
-5.1884683e-34
-5.3655815e-35
-5.2045464e-36
-4.7376331e-37
-4.0495549e-38
-3.2523744e-39
-2.4560432e-40
-1.7450632e-41
-1.1673856e-42
-7.3572309e-44
-4.370716e-45
-2.4487058e-46
-1.2943061e-47
-6.4563348e-49
-3.0400404e-50
-1.3513875e-51
-5.6718483e-53
-2.2476713e-54
-8.4103861e-56
-2.9715778e-57
-9.9144656e-59
-3.1239259e-60
-9.2968497e-62
-2.6136133e-63
-6.9420355e-65
-1.7423298e-66
-4.1323861e-68
-9.2614678e-70
-1.9610313e-71
-3.9215373e-73
-7.4020961e-75
-1.3178256e-76
-2.2109009e-78
-3.4916175e-80
-5.1845793e-82
-7.2288431e-84
-9.4513723e-86
-1.1570783e-87
-1.3243857e-89
-1.4150227e-91
-1.4089385e-93
-1.3051154e-95
-1.1226481e-97
-8.9503759e-100
-6.6001703e-102
-4.4919928e-104
-2.8150003e-106
-1.6202455e-108
-8.5421178e-111
-4.1129458e-113
-1.8028212e-115
-7.168859e-118
-2.5762695e-120
-8.3322939e-123
-2.4142212e-125
-6.2348408e-128
-1.42711e-130
-2.8768777e-133
-5.070999e-136
-7.7512235e-139
-1.0173979e-141
-1.1329825e-144
-1.0538335e-147
-8.0097203e-151
-4.8100184e-154
-2.1551332e-157
-6.4424027e-161
-9.6697774e-165
0
0
0
0
1
1
1
1
0.92428215
0.080595712
2.3963923e-19
2.09821e-36
-1.3222147e-20
-7.3057999e-21
-3.0317333e-21
-1.1446458e-21
-4.2687537e-22
-1.5566415e-22
-5.3177641e-23
-1.6553172e-23
-4.652712e-24
-1.181084e-24
-2.7164768e-25
-5.6821598e-26
-1.0847291e-26
-1.8956441e-27
-3.0406018e-28
-4.4864566e-29
-6.1012684e-30
-7.6598104e-31
-8.8899207e-32
-9.5491439e-33
-9.5024391e-34
-8.7669045e-35
-7.5033902e-36
-5.9601052e-37
-4.3948777e-38
-3.0086605e-39
-1.9120271e-40
-1.1276946e-41
-6.1697131e-43
-3.1291533e-44
-1.4699308e-45
-6.3884599e-47
-2.5653084e-48
-9.5022639e-50
-3.2406565e-51
-1.0152955e-52
-2.9146352e-54
-7.6437882e-56
-1.824984e-57
-3.9507954e-59
-7.7186551e-61
-1.353418e-62
-2.116034e-64
-2.9271873e-66
-3.5499947e-68
-3.7345268e-70
-3.3703509e-72
-2.5942415e-74
-1.7440777e-76
-1.1706585e-78
-1.0590322e-80
-1.4012617e-82
-2.0994205e-84
-3.0595952e-86
-4.1968417e-88
-5.3943144e-90
-6.4869597e-92
-7.2875038e-94
-7.6361787e-96
-7.4514123e-98
-6.7599525e-100
-5.6915818e-102
-4.4391668e-104
-3.2010058e-106
-2.1293821e-108
-1.3037242e-110
-7.3277297e-113
-3.7703917e-115
-1.7705387e-117
-7.5626457e-120
-2.9275897e-122
-1.023043e-124
-3.2132973e-127
-9.0288967e-130
-2.2578416e-132
-4.9961035e-135
-9.7195305e-138
-1.6502211e-140
-2.4244448e-143
-3.0510434e-146
-3.248195e-149
-2.8790391e-152
-2.0784106e-155
-1.1823459e-158
-5.0122695e-162
-1.4188203e-165
-2.0217473e-169
0
0
0
0
0
1
1
1
1
0.92428244
0.080595929
5.0837985e-23
-2.2411954e-20
-2.1804336e-20
-1.0874595e-20
-3.8299017e-21
-1.0860998e-21
-2.6682758e-22
-6.0376448e-23
-1.330015e-23
-2.9551412e-24
-6.6700793e-25
-1.5064555e-25
-3.3207221e-26
-6.9758247e-27
-1.3727119e-27
-2.5055078e-28
-4.2232066e-29
-6.566934e-30
-9.4263273e-31
-1.250792e-31
-1.5367062e-32
-1.7508992e-33
-1.8529667e-34
-1.8241243e-35
-1.6728511e-36
-1.4313052e-37
-1.1444397e-38
-8.5675152e-40
-6.0184692e-41
-3.9779213e-42
-2.4818449e-43
-1.4672197e-44
-8.25394e-46
-4.437804e-47
-2.2894787e-48
-1.1366898e-49
-5.4385086e-51
-2.5064886e-52
-1.110488e-53
-4.7147661e-55
-1.9113388e-56
-7.3725069e-58
-2.6974307e-59
-9.3380257e-61
-3.0527909e-62
-9.411595e-64
-2.733439e-65
-7.4732367e-67
-1.9222371e-68
-4.6492864e-70
-1.0569119e-71
-2.2570814e-73
-4.5255564e-75
-8.5141718e-77
-1.501933e-78
-2.4822584e-80
-3.840055e-82
-5.5549556e-84
-7.5056177e-86
-9.4605266e-88
-1.1109063e-89
-1.2134806e-91
-1.2310937e-93
-1.1580065e-95
-1.0080898e-97
-8.1060269e-100
-6.0080214e-102
-4.0954283e-104
-2.5613499e-106
-1.4659313e-108
-7.6561088e-111
-3.6375495e-113
-1.5668591e-115
-6.0955237e-118
-2.1324449e-120
-6.6755918e-123
-1.859395e-125
-4.5774243e-128
-9.880548e-131
-1.852066e-133
-2.9788281e-136
-4.0487717e-139
-4.5579428e-142
-4.1342425e-145
-2.9022302e-148
-1.4791182e-151
-4.8674227e-155
-7.7606499e-159
-9.0701214e-191
0
0
0
0
0
1
1
1
1
0.92428264
0.08059608
-2.5407541e-20
-4.9120194e-20
-2.0104859e-20
-5.3292456e-21
-2.0598236e-21
-9.1766864e-22
-3.6093811e-22
-1.2525397e-22
-3.9463332e-23
-1.1450451e-23
-3.0674451e-24
-7.5661934e-25
-1.7127864e-25
-3.5519239e-26
-6.7465734e-27
-1.1748421e-27
-1.8785207e-28
-2.762656e-29
-3.7429824e-30
-4.6786614e-31
-5.402369e-32
-5.768538e-33
-5.7009483e-34
-5.2184087e-35
-4.4267562e-36
-3.4816254e-37
-2.5396574e-38
-1.7186253e-39
-1.0792073e-40
-6.2902916e-42
-3.4046742e-43
-1.7126717e-44
-8.019019e-46
-3.5042625e-47
-1.435956e-48
-5.5602689e-50
-2.0583249e-51
-7.398826e-53
-2.6271914e-54
-9.3389211e-56
-3.3356801e-57
-1.1882961e-58
-4.1620556e-60
-1.4118338e-61
-4.5825312e-63
-1.4115989e-64
-4.106023e-66
-1.1245509e-67
-2.8951411e-69
-6.9994655e-71
-1.5880793e-72
-3.3795255e-74
-6.7421421e-76
-1.260328e-77
-2.2064512e-79
-3.6158167e-81
-5.5435755e-83
-7.9470814e-85
-1.0646639e-86
-1.3321249e-88
-1.5557086e-90
-1.694585e-92
-1.7203719e-94
-1.6264507e-96
-1.4305739e-98
-1.1694162e-100
-8.8734902e-103
-6.2415645e-105
-4.0634417e-107
-2.4441893e-109
-1.3556676e-111
-6.9178311e-114
-3.2394402e-116
-1.3879624e-118
-5.4228435e-121
-1.9245322e-123
-6.1760359e-126
-1.782783e-128
-4.6007198e-131
-1.053807e-133
-2.1241922e-136
-3.7296222e-139
-5.6326074e-142
-7.2019661e-145
-7.6371603e-148
-6.5304702e-151
-4.3232112e-154
-2.0775026e-157
-6.4423392e-161
-9.6696829e-165
0
0
0
0
1
1
1
1
0.92428278
0.080596186
-2.2123124e-19
-3.1978535e-20
-1.7744721e-20
-8.7662762e-21
-3.2054382e-21
-1.0102479e-21
-2.9657626e-22
-8.4637111e-23
-2.378718e-23
-6.5088126e-24
-1.7001255e-24
-4.1711141e-25
-9.5186266e-26
-2.0114791e-26
-3.932345e-27
-7.1184324e-28
-1.1952725e-28
-1.8651796e-29
-2.7095262e-30
-3.6694828e-31
-4.638088e-32
-5.4759034e-33
-6.0424232e-34
-6.2341582e-35
-6.0154145e-36
-5.4292466e-37
-4.5839206e-38
-3.6206129e-39
-2.6754607e-40
-1.849791e-41
-1.1967804e-42
-7.2471992e-44
-4.1089898e-45
-2.1823169e-46
-1.0864423e-47
-5.0744202e-49
-2.2261521e-50
-9.1861889e-52
-3.5717489e-53
-1.3111759e-54
-4.5543298e-56
-1.5001399e-57
-4.6952217e-59
-1.3985132e-60
-3.9674859e-62
-1.0719148e-63
-2.7551461e-65
-6.7242293e-67
-1.5543626e-68
-3.3932206e-70
-6.9744102e-72
-1.3457206e-73
-2.4308208e-75
-4.1002024e-77
-6.4435103e-79
-9.4147813e-81
-1.2765863e-82
-1.6035372e-84
-1.8628047e-86
-1.9980237e-88
-1.975438e-90
-1.7973201e-92
-1.5022106e-94
-1.151299e-96
-8.0753336e-99
-5.1731358e-101
-3.0199609e-103
-1.6026545e-105
-7.7104146e-108
-3.3523255e-110
-1.3122975e-112
-4.6045341e-115
-1.4400993e-117
-3.9866486e-120
-9.6813263e-123
-2.0385469e-125
-3.6654158e-128
-5.5135993e-131
-6.7443531e-134
-6.4383739e-137
-4.4980454e-140
-2.0533488e-143
-4.8055289e-147
-3.6537712e-151
-2.9869388e-154
-1.8808157e-157
-8.5461262e-161
-2.4884898e-164
-3.4782073e-168
0
0
0
0
0
1
1
1
1
0.92428289
0.080596262
2.5548077e-19
1.5736575e-36
-6.2584638e-21
-5.1777888e-21
-3.0651571e-21
-1.4664835e-21
-5.8858552e-22
-2.0315658e-22
-6.1444453e-23
-1.6537952e-23
-4.0151705e-24
-8.9000048e-25
-1.8200933e-25
-3.4631895e-26
-6.16731e-27
-1.0311753e-27
-1.6200791e-28
-2.3897469e-29
-3.3044497e-30
-4.2764726e-31
-5.1736643e-32
-5.847581e-33
-6.1745415e-34
-6.0934634e-35
-5.624266e-36
-4.8594581e-37
-3.933882e-38
-2.9862689e-39
-2.1272378e-40
-1.4227037e-41
-8.9366779e-43
-5.273213e-44
-2.9229261e-45
-1.5217897e-46
-7.4404578e-48
-3.4154709e-49
-1.4716787e-50
-5.9515217e-52
-2.258937e-53
-8.0492209e-55
-2.6942308e-56
-8.4799391e-58
-2.5136277e-59
-7.0320965e-61
-1.8617191e-62
-4.6788819e-64
-1.119884e-65
-2.5601281e-67
-5.6011538e-69
-1.1735533e-70
-2.3525438e-72
-4.501403e-74
-8.1927975e-76
-1.4126738e-77
-2.2981656e-79
-3.5135729e-81
-5.0304963e-83
-6.7238751e-85
-8.3675683e-87
-9.6718731e-89
-1.0361186e-90
-1.0266049e-92
-9.3887818e-95
-7.9089046e-97
-6.1228404e-99
-4.3456981e-101
-2.820116e-103
-1.6683178e-105
-8.967186e-108
-4.3631852e-110
-1.914049e-112
-7.5360457e-115
-2.6496757e-117
-8.2727851e-120
-2.2789345e-122
-5.4977448e-125
-1.1510856e-127
-2.0684099e-130
-3.1438468e-133
-3.9633379e-136
-4.0312779e-139
-3.175856e-142
-1.8156473e-145
-6.6911031e-149
-1.1924691e-152
-2.022867e-165
-5.6449935e-169
-7.5299587e-173
0
0
0
0
0
0
1
1
1
1
0.92428296
0.080596316
-3.4674802e-20
-8.0770757e-21
-3.1848504e-21
-1.1747625e-21
-4.2789554e-22
-1.6292239e-22
-6.0588475e-23
-2.06314e-23
-6.3534108e-24
-1.7894297e-24
-4.6746449e-25
-1.1427714e-25
-2.6210287e-26
-5.6309355e-27
-1.1296383e-27
-2.1105388e-28
-3.6670034e-29
-5.9234882e-30
-8.901075e-31
-1.245549e-31
-1.6250573e-32
-1.9792799e-33
-2.2531159e-34
-2.3996881e-35
-2.3934534e-36
-2.2374195e-37
-1.9616866e-38
-1.6141302e-39
-1.2471142e-40
-9.0518017e-42
-6.1745205e-43
-3.9597743e-44
-2.3882682e-45
-1.3551272e-46
-7.2359948e-48
-3.6372914e-49
-1.7217455e-50
-7.6777467e-52
-3.2266591e-53
-1.2785778e-54
-4.7794286e-56
-1.6863045e-57
-5.6189191e-59
-1.7691681e-60
-5.2663342e-62
-1.4827038e-63
-3.9493771e-65
-9.9533428e-67
-2.3730789e-68
-5.3503642e-70
-1.1399731e-71
-2.2932598e-73
-4.3508884e-75
-7.7753469e-77
-1.3070298e-78
-2.0637585e-80
-3.0564594e-82
-4.2398528e-84
-5.5011818e-86
-6.667331e-88
-7.5382762e-90
-7.9407286e-92
-7.7833342e-94
-7.0897843e-96
-5.9936845e-98
-4.6962876e-100
-3.4055182e-102
-2.2818784e-104
-1.4103355e-106
-8.0245257e-109
-4.1938597e-111
-2.0081584e-113
-8.7841771e-116
-3.4983638e-118
-1.263617e-120
-4.1212441e-123
-1.2074933e-125
-3.1594393e-128
-7.3314122e-131
-1.4963566e-133
-2.6596428e-136
-4.0663708e-139
-5.2651199e-142
-5.6564259e-145
-4.9028402e-148
-3.2920783e-151
-1.6056537e-154
-5.0571757e-158
-7.7154727e-162
0
0
0
0
0
1
1
1
1
0.92428301
0.080596356
1.6915691e-19
-2.2171254e-20
-1.8919192e-20
-4.1271812e-21
-8.8261294e-22
-2.492577e-22
-7.2253143e-23
-1.9226345e-23
-4.9200025e-24
-1.2831931e-24
-3.4350441e-25
-9.0968277e-26
-2.2900072e-26
-5.3542944e-27
-1.1523552e-27
-2.2791806e-28
-4.1479259e-29
-6.9609083e-30
-1.0795385e-30
-1.5503459e-31
-2.0654924e-32
-2.5569303e-33
-2.9453e-34
-3.160824e-35
-3.1638446e-36
-2.9566942e-37
-2.5820451e-38
-2.1088388e-39
-1.6120434e-40
-1.1541985e-41
-7.7458017e-43
-4.8758578e-44
-2.8811519e-45
-1.5994388e-46
-8.3491671e-48
-4.1021982e-49
-1.8991008e-50
-8.2932741e-52
-3.4202069e-53
-1.3335705e-54
-4.9210522e-56
-1.7200068e-57
-5.6970891e-59
-1.7884632e-60
-5.3195679e-62
-1.4980176e-63
-3.9893678e-65
-1.003234e-66
-2.3783808e-68
-5.30594e-70
-1.1118765e-71
-2.1847244e-73
-4.0184278e-75
-6.9081005e-77
-1.1083547e-78
-1.6574383e-80
-2.3072395e-82
-2.9862764e-84
-3.5896422e-86
-4.0028018e-88
-4.1359295e-90
-3.9552083e-92
-3.4963929e-94
-2.8533649e-96
-2.1466498e-98
-1.4864226e-100
-9.4562044e-103
-5.5154037e-105
-2.9420966e-107
-1.4311606e-109
-6.326391e-112
-2.5307076e-114
-9.1151654e-117
-2.9383745e-119
-8.4164868e-122
-2.1235352e-124
-4.6699839e-127
-8.8363042e-130
-1.4153134e-132
-1.8788421e-135
-2.0089367e-138
-1.6604197e-141
-9.9436838e-145
-3.8354368e-148
-7.1484031e-152
-3.9767685e-159
-1.2110718e-162
-1.7829596e-166
0
0
0
0
0
0
1
1
1
1
0.92428305
0.080596385
2.5561628e-19
1.049105e-36
-9.1664821e-21
-5.8757933e-21
-2.5729494e-21
-9.0114316e-22
-2.6258024e-22
-6.4310145e-23
-1.3335318e-23
-2.368901e-24
-3.6719592e-25
-5.1155685e-26
-6.7161795e-27
-8.849065e-28
-1.2299635e-28
-1.8052414e-29
-2.6907621e-30
-3.9130457e-31
-5.4291051e-32
-7.1316506e-33
-8.8675703e-34
-1.046052e-34
-1.1733196e-35
-1.2529915e-36
-1.2741109e-37
-1.2327223e-38
-1.1333922e-39
-9.8891589e-41
-8.1784762e-42
-6.404827e-43
-4.7465718e-44
-3.327471e-45
-2.206026e-46
-1.382974e-47
-8.1976068e-49
-4.5940052e-50
-2.4337526e-51
-1.218633e-52
-5.7662267e-54
-2.5776443e-55
-1.0882714e-56
-4.3379647e-58
-1.631936e-59
-5.7916865e-61
-1.9381687e-62
-6.1128845e-64
-1.8160848e-65
-5.0793988e-67
-1.336624e-68
-3.3070782e-70
-7.6880825e-72
-1.6780766e-73
-3.4362785e-75
-6.596145e-77
-1.185873e-78
-1.9949414e-80
-3.1371788e-82
-4.6069351e-84
-6.3105355e-86
-8.0535602e-88
-9.56377e-90
-1.0553687e-91
-1.0806526e-93
-1.0251838e-95
-8.9955376e-98
-7.2875402e-100
-5.4402346e-102
-3.7343802e-104
-2.3516993e-106
-1.3552198e-108
-7.1267837e-111
-3.4095294e-113
-1.4788346e-115
-5.7928522e-118
-2.0403923e-120
-6.4299976e-123
-1.8024822e-125
-4.4642632e-128
-9.6904668e-131
-1.8256358e-133
-2.9492411e-136
-4.0231604e-139
-4.5418553e-142
-4.127705e-145
-2.9009178e-148
-1.4790931e-151
-4.8673405e-155
-7.7605192e-159
-2.6111398e-191
0
0
0
0
0
1
1
1
1
0.92428308
0.080596407
-8.4547971e-21
-4.4547571e-21
-2.3595738e-21
-6.6862667e-22
-1.2929658e-22
-2.2381468e-23
-5.3767847e-24
-1.9231664e-24
-7.3426509e-25
-2.5803501e-25
-8.1732143e-26
-2.3413683e-26
-6.0990079e-27
-1.4515268e-27
-3.1690117e-28
-6.3688586e-29
-1.1817858e-29
-2.0299483e-30
-3.235093e-31
-4.7930262e-32
-6.6132807e-33
-8.5110429e-34
-1.0230697e-34
-1.150045e-35
-1.2102695e-36
-1.1935017e-37
-1.1038339e-38
-9.5817194e-40
-7.811194e-41
-5.9835496e-42
-4.3088455e-43
-2.9179523e-44
-1.8587839e-45
-1.1140305e-46
-6.2825418e-48
-3.3340222e-49
-1.6649357e-50
-7.8235666e-52
-3.4590776e-53
-1.4388914e-54
-5.630844e-56
-2.0728681e-57
-7.1781873e-59
-2.3384052e-60
-7.1669511e-62
-2.067005e-63
-5.6112469e-65
-1.4342941e-66
-3.4534303e-68
-7.8356686e-70
-1.6760161e-71
-3.3804802e-73
-6.4302221e-75
-1.1533735e-76
-1.9500079e-78
-3.1053795e-80
-4.6532398e-82
-6.5520748e-84
-8.6554993e-86
-1.0708082e-87
-1.2381871e-89
-1.3354179e-91
-1.3405222e-93
-1.2496948e-95
-1.0795333e-97
-8.6214349e-100
-6.3506536e-102
-4.3042947e-104
-2.6775184e-106
-1.5245763e-108
-7.9233642e-111
-3.7468522e-113
-1.6067198e-115
-6.2242043e-118
-2.1689111e-120
-6.7654137e-123
-1.8783977e-125
-4.6114539e-128
-9.931206e-131
-1.8581968e-133
-2.9847084e-136
-4.0531581e-139
-4.5605728e-142
-4.135776e-145
-2.9033036e-148
-1.479848e-151
-4.8710275e-155
-7.7721485e-159
-1.7767966e-165
0
0
0
0
0
1
1
1
1
0.9242831
0.080596423
-2.7280199e-20
-1.481131e-20
-1.4401448e-20
-9.0140787e-21
-4.3168125e-21
-1.695647e-21
-5.6715774e-22
-1.6775881e-22