/*--------------------------------*- C++ -*----------------------------------*\
  =========                 |
  \\      /  F ield         | OpenFOAM: The Open Source CFD Toolbox
   \\    /   O peration     | Website:  https://openfoam.org
    \\  /    A nd           | Version:  6
     \\/     M anipulation  |
\*---------------------------------------------------------------------------*/
FoamFile
{
    version     2.0;
    format      ascii;
    class       surfaceScalarField;
    location    "10";
    object      phi;
}
// * * * * * * * * * * * * * * * * * * * * * * * * * * * * * * * * * * * * * //

dimensions      [0 3 -1 0 0 0 0];

internalField   nonuniform List<scalar> 
139000
(
7.9956632e-09
2.6937385e-13
3.267435e-12
7.9949105e-09
1.2531472e-13
6.2738494e-13
7.9949544e-09
4.8009472e-14
-9.1847557e-14
7.9948742e-09
3.4650352e-14
4.5482725e-14
7.9948662e-09
1.9158069e-14
-1.1113883e-14
7.9948492e-09
1.3563957e-14
3.4573727e-15
7.9948409e-09
9.321002e-15
-9.4819035e-16
7.9948336e-09
6.9751196e-15
2.6795251e-16
7.9948284e-09
5.3305052e-15
-8.1478797e-17
7.9948242e-09
4.2216853e-15
1.6112498e-17
7.9948208e-09
3.4156541e-15
-1.1972079e-17
7.9948181e-09
2.8199548e-15
-3.4603966e-18
7.9948158e-09
2.3657167e-15
-5.7640069e-18
7.9948138e-09
2.0120548e-15
-4.1660619e-18
7.9948121e-09
1.7320848e-15
-4.4015498e-18
7.9948107e-09
1.5062325e-15
-3.0290369e-18
7.9948094e-09
1.3226536e-15
-3.0317152e-18
7.9948082e-09
1.1707565e-15
-1.462392e-18
7.9948072e-09
1.0453414e-15
-1.5742662e-18
7.9948063e-09
9.400192e-16
3.7786954e-20
7.9948055e-09
8.5332529e-16
-2.5505601e-19
7.9948047e-09
7.8134868e-16
1.4177018e-18
7.994804e-09
7.2528621e-16
1.1552029e-18
7.9948033e-09
6.8319627e-16
3.0258386e-18
7.9948026e-09
6.5850978e-16
2.9647476e-18
7.994802e-09
6.5127526e-16
4.748334e-18
7.9948013e-09
6.6713081e-16
4.3818978e-18
7.9948006e-09
7.0878641e-16
5.0056427e-18
7.9947998e-09
7.8537345e-16
3.5950573e-18
7.9947988e-09
9.0497845e-16
2.5188127e-18
7.9947976e-09
1.085277e-15
4.4428991e-19
7.9947962e-09
1.3469704e-15
2.4575478e-18
7.9947943e-09
1.7282304e-15
3.7474416e-18
7.9947919e-09
2.2818879e-15
8.8354723e-18
7.9947886e-09
3.0877177e-15
7.5399004e-17
7.9947839e-09
4.3504942e-15
1.5741902e-16
7.9947778e-09
6.1305228e-15
-1.5133522e-16
7.9947656e-09
9.5485001e-15
2.625441e-15
7.9947489e-09
1.3691933e-14
3.0563512e-15
7.9947196e-09
2.4219682e-14
5.1227062e-15
7.9946847e-09
3.6792555e-14
-2.025441e-15
7.9945759e-09
7.1376884e-14
3.7341837e-14
7.9943337e-09
1.0569827e-13
1.3633703e-13
7.9940108e-09
1.806471e-13
1.4224328e-13
7.9926367e-09
4.5409269e-13
9.2022422e-13
7.9918359e-09
6.2299521e-13
1.7824974e-13
7.9900973e-09
1.3039018e-12
4.3491154e-13
7.9803295e-09
9.558926e-13
8.8118111e-12
7.9571508e-09
3.4357912e-13
2.2834824e-11
7.9967509e-09
-1.4800708e-12
1.9216487e-11
8.4875789e-09
-4.6598805e-11
-3.6943088e-10
8.1774108e-09
2.1947319e-11
2.8745769e-10
8.1326232e-09
1.3394e-11
3.0418924e-11
8.1247394e-09
4.8286438e-12
2.1121641e-12
8.1217731e-09
1.8829973e-12
1.7204815e-13
8.120052e-09
8.0979091e-13
1.8627667e-14
8.1187945e-09
3.8475087e-13
2.3187396e-15
8.1177585e-09
2.0061266e-13
-7.0216619e-16
8.1168491e-09
1.137463e-13
-9.7627639e-16
8.1160182e-09
6.9696604e-14
1.0396203e-16
8.1152402e-09
4.613414e-14
3.6577384e-16
8.1145034e-09
3.2181021e-14
3.2648166e-16
8.1138043e-09
2.3284332e-14
-2.9507911e-16
8.1131413e-09
1.692097e-14
-3.6952761e-16
8.1125132e-09
1.2515629e-14
-5.4789177e-16
8.1119172e-09
9.2055942e-15
-2.6194083e-16
8.1113511e-09
6.9616115e-15
-3.4129817e-16
8.1108126e-09
5.1267586e-15
-1.9189865e-16
8.1103006e-09
3.8138434e-15
-4.3006013e-16
8.1098142e-09
2.563292e-15
-4.1777899e-16
8.1093532e-09
1.6270902e-15
-6.819524e-16
8.108917e-09
6.7663713e-16
-6.8342769e-16
8.1085055e-09
-1.5639356e-17
-9.0492318e-16
8.1081181e-09
-7.3407784e-16
-9.0441136e-16
8.107755e-09
-1.2373851e-15
-1.0777783e-15
8.1074157e-09
-1.7679671e-15
-1.069192e-15
8.1071002e-09
-2.1127055e-15
-1.1742357e-15
8.1068082e-09
-2.4616027e-15
-1.1366635e-15
8.1065395e-09
-2.6343622e-15
-1.1536181e-15
8.1062937e-09
-2.7752769e-15
-1.0755207e-15
8.1060706e-09
-2.7501394e-15
-1.0034462e-15
8.1058696e-09
-2.6709003e-15
-8.8699578e-16
8.1056905e-09
-2.4623449e-15
-7.4842122e-16
8.1055331e-09
-2.2149529e-15
-6.1880414e-16
8.1053972e-09
-1.8993754e-15
-4.4081718e-16
8.1052828e-09
-1.5629884e-15
-2.8751146e-16
8.1051898e-09
-1.1781885e-15
-5.0294164e-17
8.1051178e-09
-7.5269495e-16
1.4699976e-16
8.1050666e-09
-3.0578216e-16
3.6629377e-16
8.1050364e-09
7.5403242e-17
4.3189124e-16
8.1050278e-09
2.8997552e-16
4.2495055e-16
8.1050422e-09
3.0780072e-16
3.7346603e-16
8.1050795e-09
2.9254912e-16
5.1743131e-16
8.1051382e-09
4.6428579e-16
8.7375545e-16
8.105216e-09
8.9528461e-16
1.169097e-15
8.1053125e-09
1.164525e-15
9.6839402e-16
8.1054311e-09
8.2740048e-16
2.0383797e-16
8.1055762e-09
-9.8859883e-17
-3.97528e-16
8.1057478e-09
-7.1708149e-16
-2.8636383e-16
-4.7368228e-16
6.6642063e-17
7.9960273e-09
1.7439322e-13
3.2677129e-12
7.9954172e-09
1.0797521e-13
6.2743294e-13
7.9954908e-09
6.6219502e-14
-9.1844155e-14
7.9954336e-09
4.6385527e-14
4.5490282e-14
7.9954327e-09
3.1187752e-14
-1.111115e-14
7.9954201e-09
2.2705715e-14
3.4617609e-15
7.9954137e-09
1.6713521e-14
-9.4436831e-16
7.9954076e-09
1.2803581e-14
2.7124784e-16
7.995403e-09
1.002153e-14
-7.8122928e-17
7.9953992e-09
8.0343649e-15
1.9476966e-17
7.9953961e-09
6.5602892e-15
-8.0474835e-18
7.9953934e-09
5.4462287e-15
2.2973755e-19
7.9953913e-09
4.5849015e-15
-1.87963e-18
7.9953894e-09
3.9076311e-15
-1.0086127e-18
7.9953878e-09
3.3666153e-15
-1.3405177e-18
7.9953863e-09
2.9288312e-15
-1.0834756e-18
7.9953851e-09
2.5707961e-15
-1.4318362e-18
7.995384e-09
2.2756702e-15
-1.2902299e-18
7.995383e-09
2.031174e-15
-1.8345278e-18
7.9953821e-09
1.8286321e-15
-1.6620002e-18
7.9953813e-09
1.6619367e-15
-2.1405421e-18
7.9953805e-09
1.5273462e-15
-1.5588521e-18
7.9953798e-09
1.4229113e-15
-1.5430289e-18
7.9953792e-09
1.3486247e-15
-2.8546099e-19
7.9953785e-09
1.3060697e-15
2.7961938e-19
7.9953779e-09
1.2988185e-15
1.7685643e-18
7.9953773e-09
1.3324962e-15
2.0864688e-18
7.9953766e-09
1.4152134e-15
2.6094732e-18
7.9953758e-09
1.5591358e-15
1.8434796e-18
7.9953749e-09
1.7802638e-15
1.2946007e-18
7.9953739e-09
2.1039338e-15
-5.5077292e-19
7.9953726e-09
2.5613725e-15
4.3483965e-18
7.9953711e-09
3.2066981e-15
-7.5021498e-19
7.9953692e-09
4.0875603e-15
6.0357674e-18
7.9953667e-09
5.3667143e-15
1.0271356e-16
7.9953639e-09
6.966798e-15
1.0731047e-16
7.9953602e-09
9.7068841e-15
6.478969e-17
7.9953556e-09
1.2286101e-14
1.8269493e-15
7.9953483e-09
1.8882289e-14
2.1493765e-15
7.9953415e-09
2.1611888e-14
9.513783e-15
7.9953353e-09
3.8565211e-14
4.3579029e-15
7.9953666e-09
3.9227526e-14
6.0584798e-16
7.9951269e-09
6.5603757e-14
2.7955129e-13
7.9948275e-09
1.1165187e-13
3.6842578e-13
7.994778e-09
9.3115137e-14
4.1082614e-13
7.9956317e-09
8.3982118e-14
-3.1412754e-13
7.9940803e-09
-1.3151167e-15
2.8569342e-12
7.9881333e-09
3.078774e-13
6.5947311e-12
7.9707568e-09
-4.3796594e-13
1.8157567e-11
8.0009428e-09
-1.6431996e-12
2.5817599e-11
8.3851459e-09
7.4158699e-12
-3.6398368e-10
8.1378829e-09
-1.0341712e-11
2.7877382e-10
8.1205978e-09
-1.0194461e-13
2.9798761e-11
8.1211032e-09
1.2844877e-12
2.0959096e-12
8.1208494e-09
1.0498081e-12
1.7255823e-13
8.1200556e-09
6.8293286e-13
1.8731487e-14
8.1191338e-09
4.2387444e-13
1.6439454e-15
8.1182287e-09
2.6427687e-13
-1.3325842e-15
8.1173743e-09
1.6873283e-13
-7.5421107e-16
8.1165687e-09
1.1158227e-13
5.627687e-16
8.1158027e-09
7.6690736e-14
8.3089736e-16
8.1150721e-09
5.4641565e-14
4.2046255e-16
8.1143762e-09
3.9868547e-14
-1.7859556e-16
8.1137154e-09
2.962216e-14
-2.8751737e-16
8.1130884e-09
2.2236484e-14
-2.1096491e-16
8.1124936e-09
1.6941098e-14
5.7675666e-17
8.111928e-09
1.2970682e-14
8.9129915e-17
8.1113901e-09
9.9898074e-15
9.453492e-17
8.1108782e-09
7.5599201e-15
-1.1311195e-16
8.1103922e-09
5.6054451e-15
-2.3031741e-16
8.1099312e-09
3.9126758e-15
-4.4690814e-16
8.1094953e-09
2.5245773e-15
-5.3019434e-16
8.1090838e-09
1.3106382e-15
-6.9387886e-16
8.1086966e-09
3.2397809e-16
-7.4165086e-16
8.1083335e-09
-5.3425148e-16
-8.586285e-16
8.1079944e-09
-1.2181424e-15
-8.659165e-16
8.107679e-09
-1.7919906e-15
-9.2195817e-16
8.1073871e-09
-2.2174963e-15
-8.7887469e-16
8.1071185e-09
-2.5261619e-15
-8.6949418e-16
8.1068729e-09
-2.6958078e-15
-7.8554928e-16
8.1066499e-09
-2.735979e-15
-7.2675653e-16
8.106449e-09
-2.6526641e-15
-6.190218e-16
8.10627e-09
-2.4483398e-15
-5.3624645e-16
8.1061126e-09
-2.1641097e-15
-4.2849615e-16
8.1059768e-09
-1.7948615e-15
-3.2737514e-16
8.1058625e-09
-1.3940323e-15
-1.9616454e-16
8.1057695e-09
-9.2602267e-16
-4.1800292e-17
8.1056976e-09
-4.4195583e-16
1.184771e-16
8.1056463e-09
7.9085429e-17
2.375558e-16
8.1056159e-09
5.1764375e-16
2.5383561e-16
8.1056072e-09
8.3387719e-16
1.9966456e-16
8.1056215e-09
9.4923867e-16
1.9583048e-16
8.1056591e-09
1.0003528e-15
4.0636706e-16
8.105718e-09
1.1157451e-15
7.831306e-16
8.1057957e-09
1.366635e-15
9.6298089e-16
8.1058915e-09
1.4641539e-15
5.6299296e-16
8.1060096e-09
1.0755798e-15
-2.3689759e-16
8.106155e-09
2.3604813e-16
-5.8084244e-16
8.1063275e-09
-4.0260988e-16
-9.4198488e-17
-3.0769657e-16
3.0448549e-16
7.9959869e-09
1.1986269e-13
3.2676987e-12
7.9953757e-09
9.1685753e-14
6.274326e-13
7.9954668e-09
6.6986698e-14
-9.1849968e-14
7.9954173e-09
5.032902e-14
4.548995e-14
7.9954224e-09
3.7211178e-14
-1.1112963e-14
7.9954133e-09
2.83581e-14
3.4603377e-15
7.9954091e-09
2.1845594e-14
-9.4656159e-16
7.9954044e-09
1.7202567e-14
2.6829349e-16
7.9954007e-09
1.376524e-14
-8.1635306e-17
7.9953975e-09
1.1200601e-14
1.5189303e-17
7.9953948e-09
9.2444779e-15
-1.2819067e-17
7.9953925e-09
7.7302424e-15
-5.4618969e-18
7.9953905e-09
6.538751e-15
-7.9741379e-18
7.9953888e-09
5.5888752e-15
-8.007847e-18
7.9953873e-09
4.8224e-15
-8.445088e-18
7.995386e-09
4.1980188e-15
-8.9238233e-18
7.9953848e-09
3.6855256e-15
-8.9207367e-18
7.9953837e-09
3.2631832e-15
-9.2126108e-18
7.9953828e-09
2.9145207e-15
-8.8048221e-18
7.9953819e-09
2.6281454e-15
-8.6370773e-18
7.9953812e-09
2.3953475e-15
-7.484583e-18
7.9953804e-09
2.21104e-15
-6.4094274e-18
7.9953798e-09
2.0717628e-15
-4.124933e-18
7.9953791e-09
1.977186e-15
-1.9091391e-18
7.9953785e-09
1.928421e-15
1.3516287e-18
7.995378e-09
1.9297954e-15
4.1064631e-18
7.9953774e-09
1.9878641e-15
7.1949071e-18
7.9953768e-09
2.1130248e-15
9.0869758e-18
7.9953761e-09
2.320501e-15
1.0845767e-17
7.9953753e-09
2.6311529e-15
1.1542457e-17
7.9953744e-09
3.0771005e-15
1.2079168e-17
7.9953733e-09
3.6991771e-15
1.6441448e-17
7.995372e-09
4.5640092e-15
1.7349602e-17
7.9953704e-09
5.7450264e-15
2.2318951e-17
7.9953682e-09
7.4028559e-15
1.0576319e-16
7.9953654e-09
9.6051839e-15
1.3793919e-16
7.9953622e-09
1.2903779e-14
3.0252732e-17
7.9953554e-09
1.7002827e-14
2.1059029e-15
7.995348e-09
2.4046796e-14
2.3881842e-15
7.99533e-09
3.1571643e-14
8.1286169e-15
7.9953223e-09
4.7864432e-14
-1.6382502e-15
7.9952989e-09
6.1250961e-14
1.1522899e-15
7.9950269e-09
9.5374642e-14
2.4196582e-13
7.9947662e-09
1.4457596e-13
2.2780147e-13
7.9941872e-09
1.6534077e-13
5.0726766e-13
7.9937733e-09
1.8005497e-13
3.1842992e-13
7.9917705e-09
1.4385206e-13
1.8578303e-12
7.9857237e-09
2.1133262e-13
6.1429969e-12
7.9652739e-09
4.6618454e-14
1.9964681e-11
7.9939068e-09
-2.4811719e-13
2.6781828e-11
8.447641e-09
-4.976449e-12
-3.6680574e-10
8.1552084e-09
1.0221789e-12
2.8028102e-10
8.1236316e-09
4.5041127e-13
3.0030738e-11
8.1211957e-09
6.6169292e-13
2.1046298e-12
8.1205186e-09
6.2805872e-13
1.7225753e-13
8.1197775e-09
4.9219752e-13
1.7239031e-14
8.1189537e-09
3.5532813e-13
1.7706185e-16
8.1181197e-09
2.4858844e-13
-2.4539138e-15
8.1173092e-09
1.7293873e-13
-1.426315e-15
8.1165289e-09
1.2151227e-13
-1.6589114e-16
8.1157776e-09
8.692401e-14
1.4580092e-16
8.1150555e-09
6.3414315e-14
-3.7579883e-16
8.1143648e-09
4.7031615e-14
-7.7269589e-16
8.1137073e-09
3.5401632e-14
-8.6466291e-16
8.1130827e-09
2.7034936e-14
-5.7458347e-16
8.1124893e-09
2.1003314e-14
-3.3559833e-16
8.1119248e-09
1.6582024e-14
-1.4277129e-16
8.1113875e-09
1.3292521e-14
-1.791277e-16
8.1108762e-09
1.0753266e-14
-2.2555844e-16
8.1103904e-09
8.7681527e-15
-3.6386848e-16
8.1099298e-09
7.1701083e-15
-4.154968e-16
8.109494e-09
5.8955759e-15
-5.0750669e-16
8.1090828e-09
4.8529169e-15
-5.2295427e-16
8.1086958e-09
4.0132222e-15
-5.7879684e-16
8.1083329e-09
3.3122115e-15
-5.7298266e-16
8.1079938e-09
2.73921e-15
-5.919765e-16
8.1076786e-09
2.2547699e-15
-5.5527256e-16
8.1073868e-09
1.8636616e-15
-5.2702021e-16
8.1071184e-09
1.5458281e-15
-4.5706037e-16
8.1068729e-09
1.3125244e-15
-3.9194042e-16
8.1066499e-09
1.1530242e-15
-3.0494577e-16
8.1064492e-09
1.0729307e-15
-2.2082984e-16
8.1062703e-09
1.0585108e-15
-1.388717e-16
8.106113e-09
1.1015425e-15
-5.8485042e-17
8.1059772e-09
1.184327e-15
1.9380008e-17
8.1058629e-09
1.2990803e-15
1.2494387e-16
8.10577e-09
1.4448293e-15
2.4369683e-16
8.1056981e-09
1.6223561e-15
3.7700668e-16
8.1056468e-09
1.817652e-15
4.4632678e-16
8.1056162e-09
1.9797881e-15
4.2543293e-16
8.1056073e-09
2.0444273e-15
3.2378028e-16
8.1056216e-09
1.9830337e-15
3.0627385e-16
8.1056592e-09
1.8618316e-15
5.1632654e-16
8.1057183e-09
1.802711e-15
8.9154363e-16
8.1057958e-09
1.8349622e-15
1.0218564e-15
8.1058912e-09
1.7851928e-15
5.1740674e-16
8.1060088e-09
1.4033593e-15
-3.1729147e-16
8.1061544e-09
7.1484057e-16
-5.6888961e-16
8.1063276e-09
1.1084007e-16
8.8098138e-17
-6.4273044e-17
4.2841916e-16
7.9959623e-09
8.9856584e-14
3.2676956e-12
7.9953503e-09
7.6236112e-14
6.2743116e-13
7.9954474e-09
6.1723817e-14
-9.1851049e-14
7.9954028e-09
4.9415226e-14
4.5487927e-14
7.9954121e-09
3.9042109e-14
-1.1115158e-14
7.9954059e-09
3.110274e-14
3.4579375e-15
7.9954038e-09
2.4906663e-14
-9.4966883e-16
7.9954005e-09
2.0171914e-14
2.6455853e-16
7.9953978e-09
1.6505912e-14
-8.6107451e-17
7.9953953e-09
1.3656691e-14
1.0190595e-17
7.9953931e-09
1.1416292e-14
-1.8557952e-17
7.9953912e-09
9.6373462e-15
-1.1725122e-17
7.9953894e-09
8.2094667e-15
-1.4979304e-17
7.9953879e-09
7.0525879e-15
-1.5368518e-17
7.9953866e-09
6.1074147e-15
-1.6340172e-17
7.9953854e-09
5.3298928e-15
-1.680794e-17
7.9953843e-09
4.6875604e-15
-1.6965689e-17
7.9953834e-09
4.1558608e-15
-1.6729188e-17
7.9953825e-09
3.7165861e-15
-1.5977393e-17
7.9953817e-09
3.3561051e-15
-1.4670046e-17
7.9953809e-09
3.0646522e-15
-1.2615362e-17
7.9953803e-09
2.8354218e-15
-9.8159001e-18
7.9953797e-09
2.6644598e-15
-6.1465084e-18
7.9953791e-09
2.5501771e-15
-1.7863322e-18
7.9953786e-09
2.4936939e-15
3.1505545e-18
7.995378e-09
2.4985803e-15
8.1867831e-18
7.9953775e-09
2.5718995e-15
1.2964511e-17
7.995377e-09
2.7237926e-15
1.6922591e-17
7.9953765e-09
2.970093e-15
2.0071659e-17
7.9953759e-09
3.3316938e-15
2.231716e-17
7.9953752e-09
3.8401324e-15
2.3620837e-17
7.9953745e-09
4.5356353e-15
2.9190144e-17
7.9953736e-09
5.4792905e-15
2.9136475e-17
7.9953726e-09
6.7381398e-15
3.4815699e-17
7.9953715e-09
8.45338e-15
1.2004402e-16
7.9953703e-09
1.0654259e-14
1.4282415e-16
7.9953694e-09
1.3833074e-14
6.0190837e-17
7.9953669e-09
1.7519046e-14
2.027558e-15
7.9953653e-09
2.3512332e-14
2.2929708e-15
7.9953589e-09
2.9505664e-14
8.5269859e-15
7.9953673e-09
3.9678144e-14
-3.0523348e-16
7.9953775e-09
5.0580319e-14
2.0866854e-16
7.9951633e-09
6.0295576e-14
2.4906865e-13
7.9949838e-09
8.0646898e-14
2.4338448e-13
7.9944935e-09
1.0229926e-13
5.5381609e-13
7.9944135e-09
1.414211e-13
1.1926549e-13
7.9925528e-09
1.4189516e-13
1.8628348e-12
7.9858005e-09
9.7941027e-14
6.8653992e-12
7.9659119e-09
-1.8115162e-13
2.0115714e-11
7.9978752e-09
-3.1456267e-13
2.4616684e-11
8.4351849e-09
-1.4428856e-12
-3.6638533e-10
8.1543622e-09
-5.4560743e-13
2.8159549e-10
8.1237855e-09
-1.1893513e-14
3.0037546e-11
8.1211559e-09
2.2811753e-13
2.1011992e-12
8.1203687e-09
3.1126447e-13
1.7036684e-13
8.119625e-09
2.9998722e-13
1.5590154e-14
8.1188343e-09
2.5119501e-13
-1.318205e-15
8.1180351e-09
1.9651583e-13
-3.6448729e-15
8.1172517e-09
1.4897218e-13
-2.4458231e-15
8.1164901e-09
1.1174657e-13
-1.0267652e-15
8.1157512e-09
8.3965479e-14
-6.7616216e-16
8.1150372e-09
6.353543e-14
-1.069507e-15
8.114352e-09
4.8556309e-14
-1.3937078e-15
8.1136981e-09
3.7565242e-14
-1.3258007e-15
8.1130761e-09
2.9565154e-14
-9.5940035e-16
8.1124845e-09
2.3759217e-14
-5.861647e-16
8.1119212e-09
1.9569353e-14
-3.3813888e-16
8.1113847e-09
1.6507381e-14
-2.5556893e-16
8.110874e-09
1.4265771e-14
-2.4631159e-16
8.1103887e-09
1.2595098e-14
-2.6770947e-16
8.1099284e-09
1.1365374e-14
-2.6092279e-16
8.1094929e-09
1.0445116e-14
-2.4605124e-16
8.1090819e-09
9.7673421e-15
-2.1098891e-16
8.108695e-09
9.2424993e-15
-1.7966285e-16
8.1083322e-09
8.8301856e-15
-1.3550851e-16
8.1079933e-09
8.4711802e-15
-9.1682473e-17
8.1076781e-09
8.1476921e-15
-3.0031707e-17
8.1073865e-09
7.8268839e-15
3.5177449e-17
8.1071181e-09
7.5052979e-15
1.1324421e-16
8.1068727e-09
7.1678862e-15
1.8859652e-16
8.1066498e-09
6.8174666e-15
2.6562806e-16
8.1064491e-09
6.4486209e-15
3.3180097e-16
8.1062703e-09
6.0620944e-15
3.834569e-16
8.106113e-09
5.6545188e-15
4.2091013e-16
8.1059773e-09
5.2246914e-15
4.5277013e-16
8.1058631e-09
4.7808168e-15
4.9817225e-16
8.1057702e-09
4.3375674e-15
5.6393931e-16
8.1056982e-09
3.9216416e-15
6.325679e-16
8.1056469e-09
3.5412356e-15
6.462301e-16
8.1056162e-09
3.1823542e-15
5.5840614e-16
8.1056073e-09
2.8004163e-15
3.9911026e-16
8.1056214e-09
2.3788004e-15
3.2978142e-16
8.1056591e-09
1.9640588e-15
5.1497073e-16
8.1057183e-09
1.6631179e-15
8.8422348e-16
8.1057957e-09
1.5246236e-15
1.0018362e-15
8.1058908e-09
1.4346447e-15
4.6635503e-16
8.1060081e-09
1.1875107e-15
-4.004118e-16
8.1061538e-09
7.2682843e-16
-6.1313586e-16
8.1063275e-09
2.6808636e-16
1.2019879e-16
3.4841823e-17
4.8208121e-16
7.9959512e-09
7.0996336e-14
3.2677031e-12
7.9953359e-09
6.4081398e-14
6.2742858e-13
7.9954342e-09
5.5212287e-14
-9.1852649e-14
7.9953917e-09
4.649892e-14
4.5487454e-14
7.9954032e-09
3.8563392e-14
-1.1115545e-14
7.995399e-09
3.1909821e-14
3.4576939e-15
7.9953984e-09
2.6405453e-14
-9.4998119e-16
7.9953964e-09
2.1951761e-14
2.6424166e-16
7.9953946e-09
1.835232e-14
-8.6355009e-17
7.9953928e-09
1.5448101e-14
1.0078913e-17
7.9953911e-09
1.3094871e-14
-1.8555282e-17
7.9953896e-09
1.117869e-14
-1.1608768e-17
7.9953881e-09
9.6085302e-15
-1.4781066e-17
7.9953869e-09
8.3142809e-15
-1.5063882e-17
7.9953857e-09
7.2415546e-15
-1.596352e-17
7.9953847e-09
6.3484065e-15
-1.6330716e-17
7.9953837e-09
5.6029375e-15
-1.6445109e-17
7.9953829e-09
4.9803939e-15
-1.6127783e-17
7.9953821e-09
4.4620053e-15
-1.5360659e-17
7.9953814e-09
4.0334973e-15
-1.397937e-17
7.9953807e-09
3.6844074e-15
-1.1919157e-17
7.9953801e-09
3.4073456e-15
-9.0320792e-18
7.9953795e-09
3.197781e-15
-5.3431479e-18
7.995379e-09
3.0537149e-15
-8.6983189e-19
7.9953786e-09
2.9758258e-15
4.1111834e-18
7.9953781e-09
2.9674287e-15
9.2766349e-18
7.9953777e-09
3.0351771e-15
1.4110416e-17
7.9953773e-09
3.188929e-15
1.8170847e-17
7.9953769e-09
3.4435832e-15
2.1351495e-17
7.9953764e-09
3.8190318e-15
2.3613265e-17
7.995376e-09
4.3442593e-15
2.4949209e-17
7.9953755e-09
5.0560771e-15
3.028475e-17
7.995375e-09
6.0074432e-15
3.054352e-17
7.9953745e-09
7.2585784e-15
3.5628528e-17
7.9953739e-09
8.9129947e-15
1.1913631e-16
7.9953734e-09
1.1022717e-14
1.4362667e-16
7.9953733e-09
1.3873847e-14
5.3787305e-17
7.9953715e-09
1.7289849e-14
2.0461246e-15
7.9953707e-09
2.2175304e-14
2.315616e-15
7.9953643e-09
2.7541408e-14
8.3957403e-15
7.9953692e-09
3.5370669e-14
-7.4348551e-16
7.9953751e-09
4.399054e-14
4.1038991e-16
7.9951368e-09
5.2821069e-14
2.4549983e-13
7.9949112e-09
6.878143e-14
2.3736338e-13
7.9943977e-09
6.9228482e-14
5.4695724e-13
7.9942837e-09
8.9321465e-14
1.6668123e-13
7.9924774e-09
1.1693611e-13
1.8315574e-12
7.9857696e-09
7.1989131e-14
6.7333928e-12
7.9655917e-09
-1.5310932e-13
2.0149202e-11
7.9971949e-09
-2.579355e-13
2.4898503e-11
8.4376151e-09
-9.824439e-13
-3.6641698e-10
8.1551791e-09
-3.2950413e-13
2.8142675e-10
8.1242194e-09
-9.1191746e-14
3.0039855e-11
8.1213213e-09
6.6937841e-14
2.1008608e-12
8.1203856e-09
1.4775995e-13
1.6977171e-13
8.1195819e-09
1.7330322e-13
1.513251e-14
8.1187778e-09
1.6642907e-13
-1.5677443e-15
8.1179841e-09
1.4501824e-13
-3.6777982e-15
8.1172111e-09
1.1999829e-13
-2.3752985e-15
8.1164595e-09
9.6725796e-14
-9.210369e-16
8.1157285e-09
7.7084673e-14
-5.8579239e-16
8.1150206e-09
6.1267596e-14
-9.6542898e-16
8.1143398e-09
4.8850287e-14
-1.2737263e-15
8.1136893e-09
3.9298673e-14
-1.1672385e-15
8.1130697e-09
3.2081519e-14
-7.8499224e-16
8.1124798e-09
2.6713196e-14
-3.8796081e-16
8.1119178e-09
2.2749457e-14
-1.3775645e-16
8.1113822e-09
1.9834802e-14
-4.0588796e-17
8.1108722e-09
1.7690361e-14
-2.9529718e-17
8.1103873e-09
1.6124647e-14
-3.2401911e-17
8.1099274e-09
1.4989067e-14
-2.0948134e-17
8.1094921e-09
1.4177439e-14
9.5616875e-18
8.1090813e-09
1.3593239e-14
4.7817267e-17
8.1086946e-09
1.3163181e-14
8.8841208e-17
8.1083318e-09
1.2819793e-14
1.3209559e-16
8.1079929e-09
1.2516375e-14
1.8225993e-16
8.1076778e-09
1.2211356e-14
2.3871153e-16
8.1073861e-09
1.1879057e-14
3.033792e-16
8.1071177e-09
1.14959e-14
3.713439e-16
8.1068723e-09
1.1049515e-14
4.3632811e-16
8.1066494e-09
1.052902e-14
4.9349593e-16
8.1064487e-09
9.9311025e-15
5.3727419e-16
8.1062699e-09
9.2534708e-15
5.6016908e-16
8.1061126e-09
8.4983564e-15
5.6281282e-16
8.1059768e-09
7.6733899e-15
5.5549313e-16
8.1058626e-09
6.7943233e-15
5.5846829e-16
8.1057697e-09
5.8934035e-15
5.8336822e-16
8.1056979e-09
5.0098994e-15
6.1149709e-16
8.1056465e-09
4.1796167e-15
5.8872097e-16
8.1056159e-09
3.4104954e-15
4.6185698e-16
8.1056068e-09
2.6878422e-15
2.6903746e-16
8.105621e-09
1.9989126e-15
1.7450226e-16
8.1056588e-09
1.3826632e-15
3.5707017e-16
8.1057182e-09
9.2330012e-16
7.396338e-16
8.1057956e-09
6.7726645e-16
8.6875745e-16
8.1058905e-09
5.7972865e-16
3.245795e-16
8.1060077e-09
4.7611613e-16
-5.5050888e-16
8.1061533e-09
2.8031283e-16
-7.3113382e-16
8.1063272e-09
7.6814921e-17
6.7932749e-17
-7.9719332e-18
4.6950146e-16
7.9959449e-09
5.8444005e-14
3.2676919e-12
7.9953269e-09
5.4601202e-14
6.2742974e-13
7.995425e-09
4.8989851e-14
-9.1851989e-14
7.9953831e-09
4.285812e-14
4.5487774e-14
7.9953959e-09
3.6877475e-14
-1.1114638e-14
7.9953929e-09
3.1492001e-14
3.4589808e-15
7.9953935e-09
2.6795259e-14
-9.4840042e-16
7.9953924e-09
2.2804581e-14
2.6620101e-16
7.9953914e-09
1.944937e-14
-8.3870028e-17
7.9953902e-09
1.6647605e-14
1.3143407e-17
7.995389e-09
1.4311416e-14
-1.4896167e-17
7.9953878e-09
1.2362135e-14
-7.4064285e-18
7.9953867e-09
1.0731609e-14
-1.0060826e-17
7.9953857e-09
9.3637178e-15
-9.9162237e-18
7.9953847e-09
8.2125121e-15
-1.0464784e-17
7.9953838e-09
7.2411072e-15
-1.0649196e-17
7.995383e-09
6.4203526e-15
-1.0729308e-17
7.9953823e-09
5.7269769e-15
-1.0611829e-17
7.9953816e-09
5.1428604e-15
-1.0232907e-17
7.995381e-09
4.6539946e-15
-9.4998952e-18
7.9953804e-09
4.2498704e-15
-8.2690016e-18
7.9953799e-09
3.9229914e-15
-6.442573e-18
7.9953794e-09
3.6685862e-15
-3.9323715e-18
7.9953789e-09
3.4844233e-15
-7.8290921e-19
7.9953786e-09
3.3708243e-15
2.8603531e-18
7.9953782e-09
3.330638e-15
6.652879e-18
7.9953779e-09
3.3697496e-15
1.0207552e-17
7.9953776e-09
3.4969535e-15
1.3058008e-17
7.9953773e-09
3.725022e-15
1.5209628e-17
7.9953771e-09
4.0708832e-15
1.6615877e-17
7.9953768e-09
4.5581386e-15
1.7379359e-17
7.9953767e-09
5.2164495e-15
2.242435e-17
7.9953765e-09
6.0857434e-15
2.2795094e-17
7.9953765e-09
7.2114726e-15
2.8220656e-17
7.9953766e-09
8.6618099e-15
1.1204405e-16
7.9953769e-09
1.0475511e-14
1.3695773e-16
7.9953779e-09
1.2811939e-14
4.9378733e-17
7.9953776e-09
1.5570454e-14
2.0364289e-15
7.9953784e-09
1.9163679e-14
2.306231e-15
7.9953744e-09
2.3166907e-14
8.4167145e-15
7.9953826e-09
2.7796809e-14
-6.6360389e-16
7.9953919e-09
3.3755343e-14
5.6905612e-16
7.9951626e-09
3.6308813e-14
2.4547237e-13
7.9949456e-09
4.5104133e-14
2.405929e-13
7.9944381e-09
4.0976647e-14
5.3619062e-13
7.9942829e-09
5.6322917e-14
1.8887252e-13
7.9924039e-09
7.2172054e-14
1.9240821e-12
7.9859334e-09
5.9589555e-14
6.4824729e-12
7.9658689e-09
-3.5617474e-14
1.9946405e-11
7.9966503e-09
-1.2929078e-13
2.567077e-11
8.437039e-09
-5.4699034e-13
-3.6636155e-10
8.1553451e-09
-3.7429149e-13
2.8095258e-10
8.1243928e-09
-1.5399827e-13
3.0027228e-11
8.1214296e-09
-1.9872884e-14
2.1019876e-12
8.1204286e-09
5.8403366e-14
1.7081382e-13
8.1195829e-09
9.6900879e-14
1.6148755e-14
8.1187587e-09
1.0919914e-13
-5.1748937e-16
8.1179587e-09
1.0619596e-13
-2.6384941e-15
8.1171864e-09
9.5767053e-14
-1.4106993e-15
8.1164382e-09
8.2826804e-14
-7.8214114e-17
8.1157112e-09
6.9995185e-14
1.3749379e-16
8.115007e-09
5.8451929e-14
-3.4435499e-16
8.1143294e-09
4.8622306e-14
-7.2890046e-16
8.1136814e-09
4.0559254e-14
-6.9221092e-16
8.1130638e-09
3.4127337e-14
-3.7701378e-16
8.1124754e-09
2.9089578e-14
-5.4809234e-17
8.1119145e-09
2.5183292e-14
1.2081306e-16
8.1113798e-09
2.2164105e-14
1.4501968e-16
8.1108704e-09
1.9837726e-14
8.9341991e-17
8.110386e-09
1.805029e-14
2.2246493e-17
8.1099264e-09
1.6685638e-14
-2.59302e-17
8.1094914e-09
1.5643712e-14
-5.2677561e-17
8.1090807e-09
1.4842636e-14
-6.7851103e-17
8.1086941e-09
1.4208896e-14
-7.5917645e-17
8.1083315e-09
1.3685215e-14
-7.6046726e-17
8.1079926e-09
1.3222093e-14
-6.411568e-17
8.1076774e-09
1.2784274e-14
-3.7486086e-17
8.1073857e-09
1.2340601e-14
2.6882059e-18
8.1071173e-09
1.1869703e-14
5.3397204e-17
8.1068718e-09
1.1352762e-14
1.0752026e-16
8.1066488e-09
1.0776927e-14
1.6097186e-16
8.106448e-09
1.0132805e-14
2.0567899e-16
8.1062691e-09
9.4151744e-15
2.3517595e-16
8.1061117e-09
8.6221334e-15
2.4715917e-16
8.1059759e-09
7.7572745e-15
2.5462903e-16
8.1058617e-09
6.8347487e-15
2.7542072e-16
8.1057688e-09
5.8814627e-15
3.2352461e-16
8.105697e-09
4.9381312e-15
3.7819428e-16
8.1056458e-09
4.0425987e-15
3.8279104e-16
8.1056151e-09
3.2160547e-15
2.8051141e-16
8.1056061e-09
2.4528111e-15
1.0704925e-16
8.1056204e-09
1.7437213e-15
3.0197406e-17
8.1056583e-09
1.1083602e-15
2.4007436e-16
8.1057179e-09
6.1089369e-16
6.5767669e-16
8.1057955e-09
3.0484264e-16
8.1501854e-16
8.1058904e-09
1.6607443e-16
2.7405449e-16
8.1060074e-09
9.0105675e-17
-6.1627218e-16
8.1061531e-09
1.0419698e-18
-7.9688654e-16
8.1063271e-09
-7.0182445e-17
3.4074898e-17
-5.2155329e-17
4.7083754e-16
7.9959413e-09
4.9502172e-14
3.2677051e-12
7.9953212e-09
4.7209239e-14
6.2742875e-13
7.9954185e-09
4.3517225e-14
-9.1851937e-14
7.9953767e-09
3.9161232e-14
4.548879e-14
7.9953901e-09
3.4657449e-14
-1.1113621e-14
7.9953878e-09
3.0365198e-14
3.4601653e-15
7.9953891e-09
2.6445317e-14
-9.4704318e-16
7.9953887e-09
2.2971796e-14
2.6781371e-16
7.9953882e-09
1.9945513e-14
-8.1932e-17
7.9953876e-09
1.7338171e-14
1.5457158e-17
7.9953868e-09
1.5105001e-14
-1.2219594e-17
7.995386e-09
1.3197875e-14
-4.3647057e-18
7.9953852e-09
1.1570381e-14
-6.6849138e-18
7.9953844e-09
1.0180999e-14
-6.2213683e-18
7.9953836e-09
8.9936219e-15
-6.5184257e-18
7.9953829e-09
7.9779241e-15
-6.5153789e-18
7.9953823e-09
7.1088632e-15
-6.5300276e-18
7.9953816e-09
6.3657319e-15
-6.457607e-18
7.9953811e-09
5.7319872e-15
-6.2868875e-18
7.9953805e-09
5.1944927e-15
-5.9021543e-18
7.99538e-09
4.74319e-15
-5.1981388e-18
7.9953796e-09
4.370711e-15
-4.0400749e-18
7.9953792e-09
4.0722131e-15
-2.3581218e-18
7.9953788e-09
3.8451852e-15
-1.4526127e-19
7.9953785e-09
3.6895e-15
2.4589579e-18
7.9953783e-09
3.6072158e-15
5.1619367e-18
7.995378e-09
3.6030954e-15
7.5971032e-18
7.9953778e-09
3.6844019e-15
9.3523882e-18
7.9953777e-09
3.861259e-15
1.0457498e-17
7.9953776e-09
4.1468975e-15
1.0955869e-17
7.9953776e-09
4.5591644e-15
1.1033191e-17
7.9953776e-09
5.1198326e-15
1.5626572e-17
7.9953778e-09
5.8563325e-15
1.5995595e-17
7.9953781e-09
6.7989441e-15
2.1624366e-17
7.9953785e-09
7.9851167e-15
1.058212e-16
7.9953793e-09
9.4386333e-15
1.3169669e-16
7.9953808e-09
1.1221148e-14
4.5147118e-17
7.9953811e-09
1.3280467e-14
2.0344448e-15
7.9953823e-09
1.5744982e-14
2.3063278e-15
7.9953787e-09
1.8411518e-14
8.4110248e-15
7.995386e-09
2.1150247e-14
-6.7592405e-16
7.9953944e-09
2.4475383e-14
6.177527e-16
7.9951602e-09
2.5048171e-14
2.4516336e-13
7.9949343e-09
2.9517304e-14
2.4146598e-13
7.9944254e-09
2.0977551e-14
5.293218e-13
7.9942484e-09
2.9634867e-14
2.0428523e-13
7.9923523e-09
2.1581355e-14
1.9470873e-12
7.9859821e-09
3.4167107e-14
6.3953065e-12
7.9660466e-09
3.2104505e-14
1.9867078e-11
7.9966666e-09
-6.4416885e-14
2.5903628e-11
8.4372484e-09
-3.5158169e-13
-3.6631325e-10
8.1555533e-09
-2.8032503e-13
2.808225e-10
8.124539e-09
-1.4375868e-13
3.0023721e-11
8.1215225e-09
-4.7028699e-14
2.1034763e-12
8.1204784e-09
1.7206508e-14
1.720949e-13
8.119602e-09
5.4934345e-14
1.7251416e-14
8.118759e-09
7.331219e-14
4.042649e-16
8.1179494e-09
7.8692622e-14
-1.8884055e-15
8.1171734e-09
7.6332468e-14
-8.2157967e-16
8.1164247e-09
7.0013515e-14
3.7102722e-16
8.1156989e-09
6.2136564e-14
4.767949e-16
8.1149964e-09
5.4083937e-14
-8.3655051e-17
8.1143206e-09
4.6591654e-14
-5.2779902e-16
8.1136744e-09
4.0003511e-14
-5.4470722e-16
8.1130583e-09
3.4415457e-14
-2.8417449e-16
8.1124711e-09
2.9780481e-14
-2.0562989e-17
8.1119112e-09
2.5979078e-14
9.6938677e-17
8.1113772e-09
2.2880208e-14
6.6458504e-17
8.1108684e-09
2.0361245e-14
-3.9360455e-17
8.1103845e-09
1.8321866e-14
-1.5415629e-16
8.1099253e-09
1.6671958e-14
-2.448705e-16
8.1094905e-09
1.5335957e-14
-3.1434616e-16
8.10908e-09
1.4242291e-14
-3.666831e-16
8.1086935e-09
1.3333075e-14
-4.1009443e-16
8.1083309e-09
1.2557003e-14
-4.3963586e-16
8.1079921e-09
1.1877297e-14
-4.5307478e-16
8.1076769e-09
1.1262318e-14
-4.4574272e-16
8.1073852e-09
1.0690334e-14
-4.1846505e-16
8.1071167e-09
1.0141354e-14
-3.7299767e-16
8.1068712e-09
9.6016092e-15
-3.1793278e-16
8.1066481e-09
9.0581992e-15
-2.5364504e-16
8.1064473e-09
8.5014848e-15
-1.9060167e-16
8.1062683e-09
7.9230227e-15
-1.3448056e-16
8.1061108e-09
7.3152601e-15
-8.6814284e-17
8.105975e-09
6.6737644e-15
-3.8183769e-17
8.1058607e-09
6.0000879e-15
3.0536303e-17
8.1057679e-09
5.3068306e-15
1.3150087e-16
8.1056961e-09
4.616604e-15
2.4280084e-16
8.1056449e-09
3.9566098e-15
3.0284715e-16
8.1056143e-09
3.3395106e-15
2.5014198e-16
8.1056054e-09
2.7610852e-15
1.1603342e-16
8.1056197e-09
2.2072723e-15
7.3415475e-17
8.1056578e-09
1.6852786e-15
3.1436888e-16
8.1057176e-09
1.2318319e-15
7.6220858e-16
8.1057954e-09
8.8721605e-16
9.3586486e-16
8.1058903e-09
6.4234337e-16