/*--------------------------------*- C++ -*----------------------------------*\
  =========                 |
  \\      /  F ield         | OpenFOAM: The Open Source CFD Toolbox
   \\    /   O peration     | Website:  https://openfoam.org
    \\  /    A nd           | Version:  6
     \\/     M anipulation  |
\*---------------------------------------------------------------------------*/
FoamFile
{
    version     2.0;
    format      ascii;
    class       volVectorField;
    location    "0";
    object      U;
}
// * * * * * * * * * * * * * * * * * * * * * * * * * * * * * * * * * * * * * //

dimensions      [0 1 -1 0 0 0 0];

internalField   nonuniform List<vector> 
50000
(
(0.0042232749 5.6034296e-07 8.056837e-07)
(0.0073455971 6.6025376e-07 7.5266009e-07)
(0.006593575 -2.5941261e-07 -8.8801592e-07)
(0.0065901613 1.1138108e-06 1.1429154e-06)
(0.0054820622 -8.9346535e-06 -2.7460271e-05)
(0.0070137167 -3.8892502e-05 -0.00011306787)
(0.0077908043 -1.2852007e-05 -3.8191423e-05)
(0.0066894258 4.5191394e-06 4.0810885e-06)
(0.0067358747 1.6391342e-06 3.1105248e-07)
(0.0067408824 6.1881766e-07 2.6168191e-08)
(0.0067389293 2.5588919e-07 2.6257355e-09)
(0.0067378333 1.1547881e-07 3.0254966e-10)
(0.0067368687 5.7323089e-08 8.1700145e-11)
(0.00673601 3.129638e-08 6.3030287e-11)
(0.0067351995 1.8624301e-08 6.0656774e-11)
(0.0067344301 1.1922998e-08 6.0254652e-11)
(0.0067336927 8.0973887e-09 5.9751565e-11)
(0.0067329843 5.7637631e-09 5.9366038e-11)
(0.0067323026 4.2594466e-09 5.8711918e-11)
(0.0067316459 3.2443262e-09 5.8137842e-11)
(0.0067310132 2.5336218e-09 5.7439624e-11)
(0.0067304035 2.0199283e-09 5.679299e-11)
(0.006729816 1.6394371e-09 5.5960452e-11)
(0.0067292499 1.3507569e-09 5.5300843e-11)
(0.0067287047 1.1279954e-09 5.4416064e-11)
(0.0067281796 9.5262e-10 5.3742141e-11)
(0.0067276743 8.1325528e-10 5.2841684e-11)
(0.0067271881 7.0012333e-10 5.2192068e-11)
(0.0067267206 6.0822444e-10 5.1302804e-11)
(0.0067262713 5.318068e-10 5.0567151e-11)
(0.0067258398 4.6857267e-10 4.9748693e-11)
(0.0067254256 4.1473861e-10 4.9171051e-11)
(0.0067250284 3.6969714e-10 4.8355459e-11)
(0.0067246476 3.3052536e-10 4.7782096e-11)
(0.006724283 2.9749265e-10 4.706592e-11)
(0.0067239341 2.681685e-10 4.6643582e-11)
(0.0067236005 2.4332448e-10 4.5946492e-11)
(0.0067232818 2.2082962e-10 4.5622809e-11)
(0.0067229778 2.0173496e-10 4.5092028e-11)
(0.006722688 1.8410199e-10 4.4803313e-11)
(0.0067224121 1.6918824e-10 4.4388011e-11)
(0.0067221498 1.5514876e-10 4.4157247e-11)
(0.0067219007 1.4337137e-10 4.3712319e-11)
(0.0067216644 1.3186002e-10 4.3494011e-11)
(0.0067214408 1.2209249e-10 4.3076407e-11)
(0.0067212294 1.1256697e-10 4.2720916e-11)
(0.00672103 1.0471981e-10 4.2030099e-11)
(0.0067208423 9.6927696e-11 4.1304067e-11)
(0.0067206659 9.0076741e-11 3.997928e-11)
(0.0067205007 8.2350767e-11 3.8214114e-11)
(0.0067203463 7.7544605e-11 3.8765456e-11)
(0.0067202024 7.2053857e-11 3.769071e-11)
(0.0067200689 6.7710838e-11 3.6471541e-11)
(0.0067199454 6.2980125e-11 3.5394918e-11)
(0.0067198316 5.9041427e-11 3.4532863e-11)
(0.0067197275 5.5194073e-11 3.3941079e-11)
(0.0067196326 5.1912702e-11 3.3356996e-11)
(0.0067195468 4.8827029e-11 3.2920987e-11)
(0.0067194699 4.6119137e-11 3.251463e-11)
(0.0067194016 4.3614544e-11 3.2071342e-11)
(0.0067193417 4.122006e-11 3.1730715e-11)
(0.00671929 3.9057831e-11 3.1285768e-11)
(0.0067192463 3.6873149e-11 3.089445e-11)
(0.0067192104 3.4832852e-11 3.0411897e-11)
(0.0067191822 3.2733141e-11 2.9937401e-11)
(0.0067191614 3.1018861e-11 2.9368933e-11)
(0.0067191479 2.9033823e-11 2.8943199e-11)
(0.0067191414 2.7525855e-11 2.838669e-11)
(0.0067191419 2.5809353e-11 2.7953867e-11)
(0.0067191492 2.4498245e-11 2.7395738e-11)
(0.006719163 2.2913934e-11 2.6979364e-11)
(0.0067191833 2.174288e-11 2.6581474e-11)
(0.00671921 2.0352198e-11 2.6246269e-11)
(0.0067192428 1.9232722e-11 2.5260472e-11)
(0.0067192816 1.7828777e-11 2.4806833e-11)
(0.0067193264 1.6989786e-11 2.4410768e-11)
(0.0067193769 1.5714744e-11 2.4034823e-11)
(0.0067194332 1.4965724e-11 2.3375752e-11)
(0.0067194949 1.3825433e-11 2.2925938e-11)
(0.0067195622 1.328134e-11 2.2282415e-11)
(0.0067196347 1.2214441e-11 2.1884683e-11)
(0.0067197125 1.1802341e-11 2.116366e-11)
(0.0067197955 1.0856545e-11 2.0677909e-11)
(0.0067198836 1.0570393e-11 1.9975979e-11)
(0.0067199766 9.7151894e-12 1.9489721e-11)
(0.0067200745 9.4968722e-12 1.8679547e-11)
(0.0067201773 8.7441369e-12 1.8171611e-11)
(0.0067202849 8.6515702e-12 1.7425354e-11)
(0.0067203971 7.9051169e-12 1.68029e-11)
(0.006720514 7.7953637e-12 1.6147739e-11)
(0.0067206355 7.0853267e-12 1.5621721e-11)
(0.0067207615 7.0052621e-12 1.4971964e-11)
(0.0067208921 6.3219745e-12 1.4585924e-11)
(0.0067210271 6.202253e-12 1.4085512e-11)
(0.0067211664 5.4896388e-12 1.362177e-11)
(0.0067213105 5.3414614e-12 1.3012412e-11)
(0.0067214576 4.8662751e-12 1.3007584e-11)
(0.006721614 4.7535636e-12 1.1515071e-11)
(0.0067217574 5.2899892e-12 1.454021e-11)
(0.0067219662 2.2898052e-12 2.9681574e-12)
(0.0042237196 4.3413974e-07 8.059547e-07)
(0.0073474078 4.1631775e-07 7.5311676e-07)
(0.0065976837 1.1409544e-06 -8.8610253e-07)
(0.0065934052 2.5021046e-06 1.0996525e-06)
(0.0054960262 3.8733879e-06 -2.7581616e-05)
(0.0070227233 7.7677571e-06 -0.0001142658)
(0.0077521022 6.028554e-06 -3.7042937e-05)
(0.0066821909 3.6282908e-06 3.9654683e-06)
(0.0067322773 1.6767367e-06 3.0175291e-07)
(0.0067399129 7.9640494e-07 2.5592782e-08)
(0.0067388812 4.0216838e-07 2.5899332e-09)
(0.0067381054 2.1545451e-07 3.1286566e-10)
(0.0067372611 1.2274424e-07 8.7343293e-11)
(0.0067364505 7.4252102e-08 6.5687637e-11)
(0.0067356605 4.7469995e-08 6.2055219e-11)
(0.0067349005 3.187498e-08 6.1054498e-11)
(0.0067341678 2.2329343e-08 6.0310901e-11)
(0.006733462 1.6216307e-08 5.9591433e-11)
(0.0067327816 1.2141409e-08 5.8839685e-11)
(0.0067321259 9.3283075e-09 5.8253866e-11)
(0.0067314937 7.3264851e-09 5.7512979e-11)
(0.0067308844 5.8636309e-09 5.6721325e-11)
(0.0067302972 4.7702683e-09 5.5967615e-11)
(0.0067297313 3.9360971e-09 5.5165234e-11)
(0.0067291862 3.2886376e-09 5.4372095e-11)
(0.0067286613 2.7778741e-09 5.3669035e-11)
(0.006728156 2.3697831e-09 5.2909932e-11)
(0.0067276699 2.0389313e-09 5.2179138e-11)
(0.0067272025 1.7684222e-09 5.1294057e-11)
(0.0067267533 1.5442164e-09 5.0623239e-11)
(0.0067263218 1.3574133e-09 4.9821412e-11)
(0.0067259077 1.1995011e-09 4.9170566e-11)
(0.0067255105 1.0658517e-09 4.8499465e-11)
(0.0067251298 9.5106954e-10 4.7830913e-11)
(0.0067247652 8.526479e-10 4.7178635e-11)
(0.0067244163 7.6674101e-10 4.6650456e-11)
(0.0067240827 6.9235472e-10 4.5941162e-11)
(0.0067237641 6.266113e-10 4.5549327e-11)
(0.0067234601 5.6903726e-10 4.5024561e-11)
(0.0067231703 5.1752424e-10 4.4741807e-11)
(0.0067228945 4.7223775e-10 4.4234198e-11)
(0.0067226322 4.3132614e-10 4.3831975e-11)
(0.0067223831 3.9513536e-10 4.334492e-11)
(0.0067221469 3.6186562e-10 4.3037339e-11)
(0.0067219233 3.3221454e-10 4.2646396e-11)
(0.0067217119 3.049497e-10 4.2142639e-11)
(0.0067215125 2.8112363e-10 4.139012e-11)
(0.0067213248 2.5902479e-10 4.0661999e-11)
(0.0067211485 2.3879657e-10 3.9761763e-11)
(0.0067209833 2.1916688e-10 3.8145525e-11)
(0.0067208289 2.0312725e-10 3.8615275e-11)
(0.0067206851 1.8897317e-10 3.7469763e-11)
(0.0067205515 1.756252e-10 3.6357677e-11)
(0.006720428 1.629719e-10 3.5462255e-11)
(0.0067203143 1.5165515e-10 3.4577555e-11)
(0.0067202102 1.4106511e-10 3.4049669e-11)
(0.0067201153 1.3152526e-10 3.3509967e-11)
(0.0067200296 1.2273056e-10 3.3072131e-11)
(0.0067199527 1.1462196e-10 3.2604534e-11)
(0.0067198844 1.0704549e-10 3.2091679e-11)
(0.0067198245 1.00002e-10 3.1623418e-11)
(0.0067197728 9.3345137e-11 3.1166678e-11)
(0.0067197292 8.7058753e-11 3.0775154e-11)
(0.0067196933 8.1062945e-11 3.027501e-11)
(0.0067196651 7.5338413e-11 2.9712051e-11)
(0.0067196443 7.0063471e-11 2.9183774e-11)
(0.0067196308 6.4871096e-11 2.8742556e-11)
(0.0067196244 6.0206281e-11 2.8171589e-11)
(0.0067196249 5.5722413e-11 2.7711062e-11)
(0.0067196322 5.1717315e-11 2.7223517e-11)
(0.0067196461 4.7535171e-11 2.6726562e-11)
(0.0067196664 4.3844494e-11 2.634294e-11)
(0.006719693 4.0193403e-11 2.5920682e-11)
(0.0067197259 3.6986285e-11 2.4978047e-11)
(0.0067197647 3.3630444e-11 2.4468972e-11)
(0.0067198095 3.0839223e-11 2.4135178e-11)
(0.0067198601 2.7875614e-11 2.3579489e-11)
(0.0067199163 2.546556e-11 2.3146546e-11)
(0.0067199781 2.2911888e-11 2.2638892e-11)
(0.0067200453 2.0984848e-11 2.2012483e-11)
(0.0067201179 1.8784798e-11 2.1602811e-11)
(0.0067201958 1.7222262e-11 2.0973786e-11)
(0.0067202788 1.5413331e-11 2.0433601e-11)
(0.0067203668 1.4259935e-11 1.9769266e-11)
(0.0067204599 1.2813485e-11 1.9335496e-11)
(0.0067205578 1.2028411e-11 1.8653728e-11)
(0.0067206606 1.0914897e-11 1.804429e-11)
(0.0067207682 1.0260526e-11 1.7402483e-11)
(0.0067208804 9.2685047e-12 1.6805043e-11)
(0.0067209973 8.7259102e-12 1.6275517e-11)
(0.0067211188 7.8068865e-12 1.5720594e-11)
(0.0067212449 7.3835346e-12 1.5136989e-11)
(0.0067213754 6.343396e-12 1.4690553e-11)
(0.0067215105 5.6409657e-12 1.4132883e-11)
(0.0067216498 4.3400788e-12 1.3731028e-11)
(0.0067217939 3.4455748e-12 1.3134556e-11)
(0.0067219411 2.4597353e-12 1.3038432e-11)
(0.0067220974 1.9426197e-12 1.1556603e-11)
(0.0067222408 1.3322018e-12 1.4563399e-11)
(0.0067224497 -5.1461911e-13 2.9579073e-12)
(0.0042235544 8.2442938e-08 8.0583012e-07)
(0.0073465184 -2.1297669e-08 7.5289261e-07)
(0.0065955589 -5.7683692e-07 -8.8834774e-07)
(0.0065916513 -1.6405002e-06 1.1287336e-06)
(0.0054869456 -2.1484825e-06 -2.7514284e-05)
(0.0070156124 -3.0672504e-06 -0.00011348242)
(0.0077737531 -2.1554633e-06 -3.7690904e-05)
(0.006685174 -5.9594687e-07 4.0289772e-06)
(0.0067333586 2.4443003e-07 3.0666888e-07)
(0.006740012 3.4210404e-07 2.587371e-08)
(0.0067387931 2.7102153e-07 2.6166273e-09)
(0.0067380172 1.9073525e-07 3.1140896e-10)
(0.0067371994 1.302516e-07 8.7301007e-11)
(0.0067364109 8.9204407e-08 6.5824155e-11)
(0.0067356356 6.2150866e-08 6.2311748e-11)
(0.0067348847 4.4309487e-08 6.133946e-11)
(0.0067341576 3.2374513e-08 6.0427493e-11)
(0.0067334551 2.4226149e-08 5.9905836e-11)
(0.0067327769 1.8535718e-08 5.9118232e-11)
(0.0067321225 1.4470658e-08 5.8425223e-11)
(0.0067314913 1.1502766e-08 5.7685114e-11)
(0.0067308826 9.2917219e-09 5.6976292e-11)
(0.0067302958 7.6136289e-09 5.6120254e-11)
(0.0067297303 6.318612e-09 5.5338696e-11)
(0.0067291854 5.3035143e-09 5.4627854e-11)
(0.0067286606 4.497017e-09 5.3749005e-11)
(0.0067281555 3.8479037e-09 5.2980143e-11)
(0.0067276695 3.3197415e-09 5.2237619e-11)
(0.0067272022 2.8851048e-09 5.1486562e-11)
(0.006726753 2.5244441e-09 5.0769129e-11)
(0.0067263216 2.2220844e-09 5.0045511e-11)
(0.0067259075 1.9668083e-09 4.9234423e-11)
(0.0067255103 1.7493484e-09 4.8627927e-11)
(0.0067251296 1.5632835e-09 4.7957597e-11)
(0.006724765 1.4024546e-09 4.7409146e-11)
(0.0067244162 1.2630349e-09 4.6730952e-11)
(0.0067240826 1.1410851e-09 4.6168339e-11)
(0.006723764 1.0342096e-09 4.5703187e-11)
(0.00672346 9.3963304e-10 4.5293684e-11)
(0.0067231703 8.5610932e-10 4.484928e-11)
(0.0067228944 7.8145286e-10 4.4442595e-11)
(0.0067226321 7.150287e-10 4.4088616e-11)
(0.006722383 6.5510172e-10 4.3708082e-11)
(0.0067221468 6.0132457e-10 4.3320106e-11)
(0.0067219232 5.5247605e-10 4.2935689e-11)
(0.0067217119 5.0862343e-10 4.2413669e-11)
(0.0067215125 4.6896812e-10 4.1846049e-11)
(0.0067213248 4.3338583e-10 4.0922659e-11)
(0.0067211485 4.0064456e-10 4.020276e-11)
(0.0067209833 3.7109706e-10 3.7986641e-11)
(0.0067208289 3.4305848e-10 3.8990807e-11)
(0.0067206851 3.1959523e-10 3.7735127e-11)
(0.0067205515 2.9668946e-10 3.6646822e-11)
(0.006720428 2.7609857e-10 3.5669075e-11)
(0.0067203143 2.5704808e-10 3.4933024e-11)
(0.0067202102 2.396019e-10 3.4294375e-11)
(0.0067201153 2.2349033e-10 3.3774023e-11)
(0.0067200296 2.0861259e-10 3.3324629e-11)
(0.0067199527 1.947784e-10 3.2781587e-11)
(0.0067198844 1.8184766e-10 3.2324976e-11)
(0.0067198245 1.6984571e-10 3.1860113e-11)
(0.0067197728 1.5854243e-10 3.1292482e-11)
(0.0067197292 1.4800624e-10 3.0884847e-11)
(0.0067196933 1.3807746e-10 3.0431779e-11)
(0.0067196651 1.2877003e-10 2.9885726e-11)
(0.0067196443 1.1993115e-10 2.9381068e-11)
(0.0067196308 1.1171665e-10 2.8809604e-11)
(0.0067196244 1.0387635e-10 2.8299857e-11)
(0.0067196249 9.669614e-11 2.7854915e-11)
(0.0067196322 8.9850121e-11 2.7388276e-11)
(0.0067196461 8.329432e-11 2.6833394e-11)
(0.0067196664 7.707383e-11 2.6493118e-11)
(0.006719693 7.1257821e-11 2.5987288e-11)
(0.0067197259 6.5846342e-11 2.5244291e-11)
(0.0067197647 6.0775058e-11 2.4584207e-11)
(0.0067198095 5.5830916e-11 2.4264431e-11)
(0.0067198601 5.1325174e-11 2.3752579e-11)
(0.0067199163 4.7003842e-11 2.3283969e-11)
(0.0067199781 4.3104069e-11 2.2778911e-11)
(0.0067200454 3.9465692e-11 2.2282038e-11)
(0.0067201179 3.619346e-11 2.1682138e-11)
(0.0067201958 3.3081531e-11 2.1206318e-11)
(0.0067202788 3.046343e-11 2.0524967e-11)
(0.0067203668 2.7960872e-11 1.9926469e-11)
(0.0067204599 2.5890068e-11 1.9257651e-11)
(0.0067205578 2.3900989e-11 1.8737797e-11)
(0.0067206606 2.2374354e-11 1.8062191e-11)
(0.0067207682 2.0620668e-11 1.7470898e-11)
(0.0067208804 1.9307705e-11 1.684191e-11)
(0.0067209974 1.7745933e-11 1.626563e-11)
(0.0067211189 1.6465501e-11 1.5647617e-11)
(0.0067212449 1.5087344e-11 1.5131047e-11)
(0.0067213755 1.3767018e-11 1.4711542e-11)
(0.0067215105 1.2099401e-11 1.4112274e-11)
(0.0067216498 1.0435652e-11 1.3679709e-11)
(0.006721794 8.4796483e-12 1.3116106e-11)
(0.0067219411 6.9410931e-12 1.2968121e-11)
(0.0067220974 5.3451877e-12 1.1576433e-11)
(0.0067222408 4.0047099e-12 1.447759e-11)
(0.0067224497 1.2584934e-12 2.9604232e-12)
(0.0042235984 1.6391122e-07 8.0588974e-07)
(0.0073467967 1.7347378e-07 7.5300623e-07)
(0.0065960556 2.6266611e-07 -8.8749342e-07)
(0.0065917908 3.7722994e-07 1.122206e-06)
(0.0054887938 1.4532636e-07 -2.7519894e-05)
(0.0070176016 -1.6673775e-07 -0.00011364697)
(0.0077697831 4.6285889e-07 -3.7556779e-05)
(0.0066847037 2.6046606e-07 4.0147482e-06)
(0.0067332125 2.5878653e-07 3.0569442e-07)
(0.0067399187 2.4481536e-07 2.5827023e-08)
(0.006738711 2.0436696e-07 2.6155763e-09)
(0.0067379512 1.5900427e-07 3.1211675e-10)
(0.0067371507 1.19665e-07 8.761781e-11)
(0.0067363766 8.9040378e-08 6.6093749e-11)
(0.0067356118 6.6357417e-08 6.2547779e-11)
(0.0067348682 4.9896345e-08 6.1437485e-11)
(0.006734146 3.8004265e-08 6.0685324e-11)
(0.0067334469 2.9372077e-08 5.9895791e-11)
(0.006732771 2.3044189e-08 5.921333e-11)
(0.0067321182 1.8346623e-08 5.8498874e-11)
(0.0067314881 1.4810993e-08 5.7741729e-11)
(0.0067308802 1.2112126e-08 5.7009263e-11)
(0.0067302939 1.0023276e-08 5.6209847e-11)
(0.0067297288 8.3852689e-09 5.5459202e-11)
(0.0067291842 7.0846849e-09 5.4721004e-11)
(0.0067286597 6.0400054e-09 5.3895532e-11)
(0.0067281548 5.191707e-09 5.299162e-11)
(0.0067276689 4.4960605e-09 5.2330911e-11)
(0.0067272016 3.9201515e-09 5.1479838e-11)
(0.0067267526 3.4395714e-09 5.0711958e-11)
(0.0067263212 3.034863e-09 5.0034533e-11)
(0.0067259072 2.6918031e-09 4.9287169e-11)
(0.0067255101 2.3989417e-09 4.8584832e-11)
(0.0067251294 2.1472134e-09 4.800442e-11)
(0.0067247648 1.9296365e-09 4.7434334e-11)
(0.006724416 1.7404881e-09 4.6881199e-11)
(0.0067240825 1.5752685e-09 4.6255388e-11)
(0.0067237639 1.4300831e-09 4.581715e-11)
(0.0067234599 1.3019174e-09 4.537775e-11)
(0.0067231702 1.1884508e-09 4.5037783e-11)
(0.0067228943 1.0873584e-09 4.4695226e-11)
(0.006722632 9.9705364e-10 4.4229166e-11)
(0.006722383 9.1601295e-10 4.3883403e-11)
(0.0067221468 8.4306302e-10 4.3488171e-11)
(0.0067219232 7.7698978e-10 4.3147079e-11)
(0.0067217118 7.1730659e-10 4.2666797e-11)
(0.0067215125 6.6309484e-10 4.2135898e-11)
(0.0067213248 6.1417995e-10 4.1240621e-11)
(0.0067211485 5.6976036e-10 4.0298949e-11)
(0.0067209832 5.2928062e-10 3.8547523e-11)
(0.0067208288 4.9152491e-10 3.9415259e-11)
(0.006720685 4.5634164e-10 3.7836427e-11)
(0.0067205515 4.2400704e-10 3.6821277e-11)
(0.006720428 3.9448957e-10 3.5884201e-11)
(0.0067203143 3.6737558e-10 3.5117591e-11)
(0.0067202102 3.4243367e-10 3.4458369e-11)
(0.0067201153 3.1943456e-10 3.3880855e-11)
(0.0067200296 2.9820814e-10 3.3395796e-11)
(0.0067199526 2.7856514e-10 3.2911425e-11)
(0.0067198844 2.6034998e-10 3.2490095e-11)
(0.0067198245 2.4333655e-10 3.1951572e-11)
(0.0067197728 2.2755019e-10 3.1402509e-11)
(0.0067197292 2.1272614e-10 3.100866e-11)
(0.0067196933 1.9896702e-10 3.042207e-11)
(0.0067196651 1.8592592e-10 3.0000885e-11)
(0.0067196443 1.7390409e-10 2.9470232e-11)
(0.0067196308 1.6248362e-10 2.8989638e-11)
(0.0067196244 1.5173695e-10 2.8459241e-11)
(0.0067196249 1.4167699e-10 2.7962458e-11)
(0.0067196322 1.3213224e-10 2.7522224e-11)
(0.0067196461 1.2323733e-10 2.7018894e-11)
(0.0067196664 1.1483088e-10 2.6575562e-11)
(0.006719693 1.0682091e-10 2.6131612e-11)
(0.0067197259 9.9270826e-11 2.5221928e-11)
(0.0067197647 9.2123542e-11 2.4662176e-11)
(0.0067198095 8.5439155e-11 2.4391354e-11)
(0.0067198601 7.9061843e-11 2.3888634e-11)
(0.0067199163 7.2995377e-11 2.3524931e-11)
(0.0067199781 6.7406479e-11 2.2856591e-11)
(0.0067200453 6.2069987e-11 2.2382661e-11)
(0.0067201179 5.7144371e-11 2.1767587e-11)
(0.0067201958 5.255792e-11 2.1223628e-11)
(0.0067202788 4.8350749e-11 2.0578762e-11)
(0.0067203668 4.4377538e-11 2.0067151e-11)
(0.0067204599 4.0700835e-11 1.9445193e-11)
(0.0067205578 3.7220876e-11 1.8695762e-11)
(0.0067206606 3.4061795e-11 1.8138796e-11)
(0.0067207682 3.1095247e-11 1.7505851e-11)
(0.0067208804 2.8287406e-11 1.6845212e-11)
(0.0067209974 2.5530007e-11 1.6220281e-11)
(0.0067211189 2.2894052e-11 1.5608813e-11)
(0.0067212449 2.0271972e-11 1.5136608e-11)
(0.0067213754 1.7910202e-11 1.460118e-11)
(0.0067215105 1.5438393e-11 1.4089309e-11)
(0.0067216498 1.3010236e-11 1.3611762e-11)
(0.006721794 1.041184e-11 1.3136156e-11)
(0.0067219411 8.0570139e-12 1.2926542e-11)
(0.0067220974 5.8265067e-12 1.1609258e-11)
(0.0067222408 3.7874854e-12 1.4426496e-11)
(0.0067224497 1.1624168e-12 2.9751998e-12)
(0.0042235665 3.4522796e-08 8.0586733e-07)
(0.0073466585 4.2099352e-09 7.5295889e-07)
(0.0065958374 -1.1236784e-07 -8.8775986e-07)
(0.0065917426 -2.5671747e-07 1.1228213e-06)
(0.0054884739 -2.6878421e-07 -2.7518603e-05)
(0.0070171989 -3.7995743e-07 -0.00011359831)
(0.007771065 -1.8205008e-07 -3.7599553e-05)
(0.0066849677 -1.6423732e-08 4.0200539e-06)
(0.0067333347 9.4260032e-08 3.0608979e-07)
(0.0067399456 1.3515466e-07 2.5850829e-08)
(0.0067386958 1.361329e-07 2.616124e-09)
(0.0067379231 1.2021376e-07 3.1138063e-10)
(0.0067371224 9.9693245e-08 8.7478622e-11)
(0.0067363526 8.016063e-08 6.6182624e-11)
(0.0067355928 6.3600427e-08 6.2652882e-11)
(0.0067348537 5.0306067e-08 6.1592228e-11)
(0.0067341351 3.9913279e-08 6.0739766e-11)
(0.0067334387 3.1879573e-08 6.000656e-11)
(0.0067327648 2.5683955e-08 5.9227066e-11)
(0.0067321135 2.089157e-08 5.8580091e-11)
(0.0067314845 1.7161453e-08 5.7851291e-11)
(0.0067308774 1.4234912e-08 5.7007301e-11)
(0.0067302917 1.1918142e-08 5.6251958e-11)
(0.006729727 1.0066917e-08 5.5433844e-11)
(0.0067291828 8.5739e-09 5.4641792e-11)
(0.0067286586 7.3588533e-09 5.3841103e-11)
(0.0067281538 6.361131e-09 5.3034213e-11)
(0.0067276681 5.5351707e-09 5.2288746e-11)
(0.006727201 4.8460311e-09 5.1511788e-11)
(0.006726752 4.2666622e-09 5.0746523e-11)
(0.0067263208 3.7761536e-09 5.0039497e-11)
(0.0067259068 3.3582232e-09 4.9288159e-11)
(0.0067255097 2.9998684e-09 4.866114e-11)
(0.0067251291 2.6907104e-09 4.8052676e-11)
(0.0067247646 2.4226968e-09 4.7360938e-11)
(0.0067244158 2.1890655e-09 4.6845078e-11)
(0.0067240823 1.9845859e-09 4.6348347e-11)
(0.0067237637 1.8046432e-09 4.581059e-11)
(0.0067234598 1.6455434e-09 4.543428e-11)
(0.0067231701 1.504386e-09 4.5089512e-11)
(0.0067228942 1.3786384e-09 4.4673689e-11)
(0.0067226319 1.2662512e-09 4.43599e-11)
(0.0067223829 1.1653387e-09 4.3955817e-11)
(0.0067221467 1.0745298e-09 4.357722e-11)
(0.0067219231 9.9219099e-10 4.3194112e-11)
(0.0067217118 9.1754484e-10 4.2717406e-11)
(0.0067215124 8.495709e-10 4.212445e-11)
(0.0067213247 7.879603e-10 4.1332502e-11)
(0.0067211484 7.3176735e-10 4.069528e-11)
(0.0067209832 6.8066798e-10 3.809163e-11)
(0.0067208288 6.3304005e-10 3.9088328e-11)
(0.006720685 5.8818182e-10 3.7988608e-11)
(0.0067205515 5.4736331e-10 3.683224e-11)
(0.006720428 5.0962439e-10 3.5947245e-11)
(0.0067203143 4.750015e-10 3.5157535e-11)
(0.0067202101 4.4297781e-10 3.4516565e-11)
(0.0067201153 4.1339753e-10 3.3893408e-11)
(0.0067200295 3.8611746e-10 3.3319933e-11)
(0.0067199526 3.6086768e-10 3.2905087e-11)
(0.0067198843 3.3728422e-10 3.2395245e-11)
(0.0067198245 3.1541792e-10 3.1953759e-11)
(0.0067197728 2.9509227e-10 3.1489071e-11)
(0.0067197291 2.7615352e-10 3.0960892e-11)
(0.0067196933 2.5844796e-10 3.0544398e-11)
(0.0067196651 2.4185356e-10 2.996759e-11)
(0.0067196443 2.264506e-10 2.9468215e-11)
(0.0067196308 2.1196153e-10 2.8941658e-11)
(0.0067196244 1.9832659e-10 2.8434061e-11)
(0.0067196249 1.855007e-10 2.8016623e-11)
(0.0067196322 1.733704e-10 2.7428485e-11)
(0.006719646 1.6208466e-10 2.6892672e-11)
(0.0067196664 1.5143099e-10 2.658231e-11)
(0.006719693 1.4130814e-10 2.6098497e-11)
(0.0067197259 1.3168002e-10 2.518897e-11)
(0.0067197647 1.2263156e-10 2.4633443e-11)
(0.0067198095 1.1407829e-10 2.4339854e-11)
(0.0067198601 1.060122e-10 2.3836991e-11)
(0.0067199163 9.827248e-11 2.3369162e-11)
(0.0067199781 9.112384e-11 2.2800196e-11)
(0.0067200453 8.4184251e-11 2.228477e-11)
(0.0067201179 7.7592868e-11 2.1767074e-11)
(0.0067201958 7.1471927e-11 2.1154749e-11)
(0.0067202788 6.5702877e-11 2.0607108e-11)
(0.0067203668 6.0183089e-11 2.0050202e-11)
(0.0067204599 5.5056598e-11 1.9399822e-11)
(0.0067205578 5.0208885e-11 1.8716183e-11)
(0.0067206606 4.5467472e-11 1.805735e-11)
(0.0067207682 4.1040542e-11 1.7475078e-11)
(0.0067208804 3.6916523e-11 1.683262e-11)
(0.0067209974 3.2925638e-11 1.6119173e-11)
(0.0067211189 2.9183268e-11 1.5676418e-11)
(0.0067212449 2.5561501e-11 1.5110737e-11)
(0.0067213754 2.2231409e-11 1.4586898e-11)
(0.0067215105 1.900869e-11 1.4108418e-11)
(0.0067216498 1.5813328e-11 1.3620567e-11)
(0.006721794 1.2638278e-11 1.3077672e-11)
(0.0067219411 9.6656251e-12 1.2945135e-11)
(0.0067220974 6.8740496e-12 1.1610942e-11)
(0.0067222408 4.1360863e-12 1.4489041e-11)
(0.0067224497 1.3686314e-12 2.9440257e-12)
(0.0042235647 2.9473487e-08 8.0587374e-07)
(0.007346654 2.2233925e-08 7.5297154e-07)
(0.006595811 -3.6428051e-09 -8.8770791e-07)
(0.0065917224 -4.8402349e-08 1.1229545e-06)
(0.0054884612 -6.7443315e-08 -2.7518697e-05)
(0.0070172623 -1.2196568e-07 -0.00011359771)
(0.0077710744 -2.8810598e-08 -3.7599714e-05)
(0.0066850054 9.728008e-09 4.0200651e-06)
(0.0067333714 5.8644149e-08 3.0611251e-07)
(0.0067399595 8.6381319e-08 2.5854833e-08)
(0.0067386916 9.4304075e-08 2.6165023e-09)
(0.0067379097 9.0165401e-08 3.1105062e-10)
(0.006737106 8.030525e-08 8.7289155e-11)
(0.0067363367 6.871566e-08 6.6051711e-11)
(0.0067355789 5.7504605e-08 6.2491591e-11)
(0.0067348422 4.7585012e-08 6.1427808e-11)
(0.0067341258 3.9213283e-08 6.060608e-11)
(0.0067334313 3.2328295e-08 5.982843e-11)
(0.006732759 2.6741435e-08 5.9100084e-11)
(0.0067321089 2.2234106e-08 5.8408812e-11)
(0.0067314808 1.860074e-08 5.7660116e-11)
(0.0067308744 1.5665412e-08 5.693911e-11)
(0.0067302894 1.3284139e-08 5.6092133e-11)
(0.0067297251 1.1341599e-08 5.5396938e-11)
(0.0067291812 9.7472843e-09 5.4543028e-11)
(0.0067286573 8.4302296e-09 5.374359e-11)
(0.0067281528 7.3350664e-09 5.304766e-11)
(0.0067276672 6.418503e-09 5.217319e-11)
(0.0067272002 5.6463364e-09 5.1385631e-11)
(0.0067267514 4.9919096e-09 5.0682103e-11)
(0.0067263202 4.433939e-09 4.9960574e-11)
(0.0067259063 3.9554899e-09 4.9239736e-11)
(0.0067255093 3.5430302e-09 4.8555039e-11)
(0.0067251288 3.1857183e-09 4.7961815e-11)
(0.0067247643 2.8745487e-09 4.7300206e-11)
(0.0067244155 2.6023294e-09 4.6738669e-11)
(0.006724082 2.3630355e-09 4.6258442e-11)
(0.0067237635 2.1519534e-09 4.5773494e-11)
(0.0067234596 1.9649612e-09 4.5375463e-11)
(0.0067231699 1.7985841e-09 4.4942766e-11)
(0.0067228941 1.6500427e-09 4.4565258e-11)
(0.0067226318 1.5170315e-09 4.4263753e-11)
(0.0067223828 1.3973822e-09 4.3822937e-11)
(0.0067221466 1.2895941e-09 4.3395441e-11)
(0.006721923 1.1918386e-09 4.3062203e-11)
(0.0067217117 1.103052e-09 4.2650633e-11)
(0.0067215123 1.0221381e-09 4.2020468e-11)
(0.0067213246 9.4831681e-10 4.112027e-11)
(0.0067211483 8.8071523e-10 3.9956381e-11)
(0.0067209831 8.1892795e-10 3.8426006e-11)
(0.0067208287 7.6225444e-10 3.9366285e-11)
(0.0067206849 7.0936295e-10 3.7738901e-11)
(0.0067205514 6.6088004e-10 3.668548e-11)
(0.0067204279 6.1606852e-10 3.5705379e-11)
(0.0067203142 5.7462137e-10 3.4969274e-11)
(0.0067202101 5.3626987e-10 3.4280938e-11)
(0.0067201153 5.0070806e-10 3.3751005e-11)
(0.0067200295 4.6771907e-10 3.3259466e-11)
(0.0067199526 4.3714008e-10 3.2844369e-11)
(0.0067198843 4.0856148e-10 3.2276922e-11)
(0.0067198244 3.8206232e-10 3.1852418e-11)
(0.0067197728 3.5744052e-10 3.1316511e-11)
(0.0067197291 3.3453118e-10 3.0917565e-11)
(0.0067196933 3.130404e-10 3.034495e-11)
(0.0067196651 2.9302441e-10 2.9853142e-11)
(0.0067196443 2.7429827e-10 2.9307054e-11)
(0.0067196308 2.5679353e-10 2.8763302e-11)
(0.0067196244 2.4030681e-10 2.8287552e-11)
(0.0067196249 2.2478277e-10 2.7796562e-11)
(0.0067196321 2.102658e-10 2.7268214e-11)
(0.006719646 1.9655476e-10 2.6798893e-11)
(0.0067196664 1.8363338e-10 2.6462066e-11)
(0.006719693 1.7139946e-10 2.5980502e-11)
(0.0067197259 1.5978954e-10 2.5159985e-11)
(0.0067197647 1.4878844e-10 2.4584518e-11)
(0.0067198095 1.3840978e-10 2.42702e-11)
(0.0067198601 1.2859013e-10 2.3768467e-11)
(0.0067199163 1.1933485e-10 2.3266846e-11)
(0.0067199781 1.1052554e-10 2.2675334e-11)
(0.0067200453 1.0222351e-10 2.2223149e-11)
(0.0067201179 9.4251827e-11 2.157575e-11)
(0.0067201958 8.6804586e-11 2.1076313e-11)
(0.0067202788 7.9753017e-11 2.044214e-11)
(0.0067203668 7.3005168e-11 1.9873243e-11)
(0.0067204599 6.6648568e-11 1.9237569e-11)
(0.0067205578 6.0642565e-11 1.863107e-11)
(0.0067206606 5.4859147e-11 1.8001223e-11)
(0.0067207682 4.9445339e-11 1.7410184e-11)
(0.0067208804 4.4376003e-11 1.6826778e-11)
(0.0067209973 3.9450901e-11 1.6186945e-11)
(0.0067211189 3.4864938e-11 1.5585573e-11)
(0.0067212449 3.0548408e-11 1.5046692e-11)
(0.0067213754 2.6378258e-11 1.4644387e-11)
(0.0067215105 2.2470818e-11 1.4091327e-11)
(0.0067216498 1.8652563e-11 1.3648188e-11)
(0.006721794 1.5023776e-11 1.3123518e-11)
(0.0067219411 1.1424102e-11 1.2975741e-11)
(0.0067220974 8.0545881e-12 1.1568466e-11)
(0.0067222408 4.6540775e-12 1.4455845e-11)
(0.0067224497 1.4720784e-12 2.9538709e-12)
(0.0042235585 5.7957906e-09 8.0587223e-07)
(0.0073466317 -2.2835579e-09 7.5296795e-07)
(0.0065957772 -2.8564901e-08 -8.8771855e-07)
(0.0065917187 -5.8279008e-08 1.1229532e-06)
(0.0054884463 -6.2311903e-08 -2.7518526e-05)
(0.0070172612 -1.0087574e-07 -0.0001135916)
(0.007771247 -5.2326032e-08 -3.7605076e-05)
(0.0066850675 -1.4612384e-08 4.0208452e-06)
(0.0067334172 2.6103053e-08 3.0617582e-07)
(0.0067399825 5.195074e-08 2.5859465e-08)
(0.0067386982 6.4044602e-08 2.616751e-09)
(0.0067379066 6.6508425e-08 3.1077451e-10)
(0.0067370981 6.3259203e-08 8.7241558e-11)
(0.0067363271 5.7209848e-08 6.6012456e-11)
(0.0067355694 5.0197036e-08 6.2497379e-11)
(0.0067348335 4.3262229e-08 6.1527001e-11)
(0.0067341183 3.6915817e-08 6.0561896e-11)
(0.006733425 3.135474e-08 5.991004e-11)
(0.0067327538 2.6603235e-08 5.9267938e-11)
(0.0067321046 2.2602114e-08 5.8446252e-11)
(0.0067314773 1.9259229e-08 5.76334e-11)
(0.0067308715 1.647549e-08 5.6930373e-11)
(0.006730287 1.4158135e-08 5.6098374e-11)
(0.0067297232 1.2225869e-08 5.5355222e-11)
(0.0067291796 1.0610023e-08 5.453757e-11)
(0.0067286559 9.2533521e-09 5.3816286e-11)
(0.0067281516 8.1095446e-09 5.2998081e-11)
(0.0067276663 7.1404787e-09 5.2265755e-11)
(0.0067271994 6.3155286e-09 5.1369621e-11)
(0.0067267507 5.6098882e-09 5.0742243e-11)
(0.0067263196 5.0033178e-09 5.0069119e-11)
(0.0067259058 4.4794783e-09 4.9259836e-11)
(0.0067255089 4.0250034e-09 4.8586757e-11)
(0.0067251284 3.6290049e-09 4.791939e-11)
(0.006724764 3.2825074e-09 4.7380212e-11)
(0.0067244152 2.9779288e-09 4.6790077e-11)
(0.0067240818 2.7091603e-09 4.6243182e-11)
(0.0067237633 2.471184e-09 4.5780905e-11)
(0.0067234594 2.2596649e-09 4.5302949e-11)
(0.0067231697 2.070885e-09 4.4984625e-11)
(0.0067228939 1.9019057e-09 4.45377e-11)
(0.0067226317 1.7501554e-09 4.4224301e-11)
(0.0067223826 1.6133783e-09 4.37624e-11)
(0.0067221465 1.4898094e-09 4.3355288e-11)
(0.0067219229 1.3778102e-09 4.2946489e-11)
(0.0067217116 1.275944e-09 4.2555927e-11)
(0.0067215122 1.1829613e-09 4.1864304e-11)
(0.0067213246 1.0977903e-09 4.1076099e-11)
(0.0067211483 1.0197957e-09 4.0504287e-11)
(0.0067209831 9.4819732e-10 3.7761076e-11)
(0.0067208287 8.8246948e-10 3.878401e-11)
(0.0067206849 8.2228976e-10 3.7743146e-11)
(0.0067205513 7.6678165e-10 3.6593258e-11)
(0.0067204279 7.1540705e-10 3.5567718e-11)
(0.0067203142 6.6777587e-10 3.4860154e-11)
(0.0067202101 6.235178e-10 3.4219348e-11)
(0.0067201152 5.8239293e-10 3.3710152e-11)
(0.0067200295 5.4419921e-10 3.3174769e-11)
(0.0067199526 5.0871101e-10 3.2746277e-11)
(0.0067198843 4.7563941e-10 3.221772e-11)
(0.0067198244 4.4488437e-10 3.1653363e-11)
(0.0067197727 4.1630576e-10 3.1252169e-11)
(0.0067197291 3.8951963e-10 3.0708606e-11)
(0.0067196933 3.6457078e-10 3.0188489e-11)
(0.006719665 3.4131944e-10 2.9770617e-11)
(0.0067196443 3.1947235e-10 2.9239912e-11)
(0.0067196308 2.9902072e-10 2.8721212e-11)
(0.0067196243 2.7976275e-10 2.8207825e-11)
(0.0067196249 2.6163405e-10 2.7718935e-11)
(0.0067196321 2.4467424e-10 2.7231369e-11)
(0.006719646 2.2864776e-10 2.6679153e-11)
(0.0067196664 2.13462e-10 2.6382851e-11)
(0.006719693 1.9905596e-10 2.5889377e-11)
(0.0067197258 1.8545147e-10 2.4985502e-11)
(0.0067197647 1.7251871e-10 2.4473614e-11)
(0.0067198095 1.6040298e-10 2.4102731e-11)
(0.0067198601 1.4893114e-10 2.3634734e-11)
(0.0067199163 1.380677e-10 2.309627e-11)
(0.0067199781 1.2779517e-10 2.2628709e-11)
(0.0067200453 1.1801562e-10 2.2054621e-11)
(0.0067201179 1.0897751e-10 2.1515932e-11)
(0.0067201958 1.0034881e-10 2.0887001e-11)
(0.0067202787 9.2193617e-11 2.0389128e-11)
(0.0067203668 8.4433238e-11 1.9718153e-11)
(0.0067204599 7.7081342e-11 1.9195721e-11)